/*--------------------------------*- C++ -*----------------------------------*\
| =========                 |                                                 |
| \\      /  F ield         | OpenFOAM: The Open Source CFD Toolbox           |
|  \\    /   O peration     | Version:  2312                                  |
|   \\  /    A nd           | Website:  www.openfoam.com                      |
|    \\/     M anipulation  |                                                 |
\*---------------------------------------------------------------------------*/
FoamFile
{
    version     2.0;
    format      ascii;
    arch        "LSB;label=32;scalar=64";
    class       volScalarField;
    location    "constant";
    object      Dkf;
}
// * * * * * * * * * * * * * * * * * * * * * * * * * * * * * * * * * * * * * //

dimensions      [0 0 0 0 0 0 0];

internalField   nonuniform List<scalar> 
154566
(
0.123487
0.0685176
0.0774548
0.0794638
0.0910922
0.0931543
0.118986
0.109744
0.125803
0.118404
0.127455
0.118336
0.134644
0.124021
0.136357
0.122249
0.123745
0.124167
0.125983
0.125179
0.131053
0.125247
0.131446
0.130041
0.132276
0.132036
0.13767
0.157737
0.182895
0.181102
0.192193
0.175598
0.182647
0.181567
0.188462
0.201071
0.217934
0.215005
0.220531
0.178215
0.169236
0.165564
0.156352
0.164381
0.16297
0.171686
0.17873
0.180595
0.185988
0.190613
0.184152
0.196223
0.202778
0.21197
0.207488
0.246233
0.248945
0.242772
0.240693
0.25271
0.211438
0.200392
0.206512
0.188894
0.196735
0.194138
0.199831
0.19679
0.198753
0.198132
0.191451
0.175255
0.174721
0.173212
0.165435
0.151178
0.140269
0.129958
0.138183
0.12589
0.134644
0.130949
0.135648
0.132182
0.133135
0.124847
0.126711
0.116324
0.122883
0.109268
0.0966397
0.0708832
0.0764668
0.0691624
0.0697248
0.0699387
0.0749162
0.0715876
0.0708904
0.0763655
0.0900268
0.091151
0.0963861
0.112261
0.122453
0.127772
0.135007
0.139996
0.136465
0.146864
0.149284
0.144748
0.150558
0.150095
0.149863
0.151921
0.157124
0.166793
0.136884
0.141949
0.142687
0.133529
0.140792
0.133857
0.141143
0.143014
0.142123
0.1588
0.173003
0.172517
0.176338
0.182137
0.177209
0.18635
0.201062
0.205708
0.216516
0.2143
0.20628
0.21134
0.213933
0.226521
0.217259
0.230753
0.241006
0.247435
0.251687
0.254388
0.264154
0.254021
0.267914
0.273321
0.279721
0.294915
0.282267
0.296456
0.305172
0.29886
0.301204
0.313607
0.344823
0.328988
0.344946
0.345614
0.366797
0.382262
0.398362
0.425854
0.432629
0.472457
0.473826
0.536482
0.558011
0.584102
0.556577
0.580252
0.617078
0.623953
0.631721
0.636239
0.612757
0.660556
0.615413
0.613497
0.640932
0.608432
0.629424
0.570516
0.60636
0.576406
0.587229
0.585369
0.58839
0.585878
0.59975
0.610232
0.648675
0.755972
0.756255
0.86827
0.813067
0.896517
0.885483
1.01016
0.953309
1.05388
0.972818
1.01384
0.871077
0.934877
0.828836
0.869005
0.804675
0.854918
0.79022
0.845613
0.784683
0.856693
0.79833
0.84599
0.8099
0.861188
0.80555
0.84863
0.809263
0.845882
0.806932
0.857114
0.821531
0.851818
0.806485
0.854895
0.825214
0.859196
0.82863
0.85371
0.850253
0.868443
0.851859
0.868824
0.849118
0.869306
0.84592
0.876952
0.848788
0.863377
0.819228
0.855364
0.816542
0.852277
0.843977
0.87144
0.8199
0.833534
0.82252
0.830997
0.815027
0.844162
0.833926
0.860691
0.856526
0.913051
0.860459
0.910499
0.868957
0.917736
0.908599
0.937463
0.855467
0.828273
0.747568
0.746604
0.620202
0.651204
0.669267
0.613431
0.52266
0.541266
0.446276
0.134506
0.0714591
0.0745333
0.088977
0.0967801
0.108409
0.109092
0.127764
0.117418
0.13054
0.118086
0.127468
0.120667
0.136676
0.121962
0.134361
0.124744
0.125915
0.122994
0.12965
0.124834
0.132522
0.130327
0.133471
0.135171
0.141407
0.148029
0.166047
0.185963
0.188421
0.190332
0.199396
0.195201
0.19921
0.196344
0.200513
0.208677
0.211994
0.211934
0.219807
0.184162
0.182629
0.176995
0.184209
0.16993
0.181715
0.179841
0.171584
0.189712
0.180262
0.188487
0.194724
0.209533
0.218058
0.222227
0.221183
0.229996
0.231457
0.230446
0.235163
0.231092
0.222639
0.198709
0.191842
0.196606
0.192979
0.190666
0.195564
0.199845
0.197342
0.200432
0.178248
0.172264
0.16825
0.157434
0.164396
0.160897
0.145343
0.13616
0.134414
0.135337
0.142823
0.139655
0.141966
0.135879
0.141484
0.13127
0.134065
0.121432
0.121558
0.0856841
0.0840675
0.0695005
0.0757983
0.0695957
0.0754856
0.0672609
0.0697422
0.0720916
0.082762
0.078356
0.0852487
0.0896031
0.103195
0.106113
0.11832
0.11484
0.12992
0.129419
0.137986
0.130266
0.134121
0.141076
0.14555
0.144353
0.152493
0.141546
0.134861
0.137042
0.175972
0.139763
0.136582
0.150382
0.137961
0.135215
0.141814
0.160436
0.169213
0.17663
0.174987
0.166231
0.180695
0.184168
0.185307
0.194252
0.20184
0.196541
0.192466
0.191938
0.20028
0.209504
0.208688
0.211448
0.208847
0.223387
0.234268
0.242277
0.241527
0.240127
0.243175
0.248582
0.254805
0.262114
0.267981
0.27532
0.2902
0.282338
0.283762
0.308004
0.306774
0.322442
0.332832
0.355716
0.360189
0.379281
0.409577
0.434458
0.463998
0.506883
0.509002
0.557953
0.568945
0.628607
0.626718
0.663329
0.672571
0.674628
0.677266
0.662044
0.655664
0.676845
0.688915
0.656848
0.690457
0.659304
0.655361
0.639871
0.635767
0.629751
0.65613
0.642745
0.659145
0.696768
0.668743
0.68229
0.684066
0.799614
0.822728
0.905111
0.898701
0.946169
0.95853
0.977074
1.0272
1.06597
1.06327
1.10158
1.03282
0.979291
0.947699
0.905597
0.915451
0.89358
0.867753
0.874353
0.869034
0.899835
0.875363
0.884661
0.876979
0.896417
0.894701
0.893499
0.90597
0.890997
0.880884
0.87986
0.884731
0.868061
0.85013
0.86148
0.861099
0.871675
0.851593
0.865735
0.879933
0.888859
0.888533
0.896403
0.892594
0.909077
0.888136
0.902542
0.89927
0.917396
0.906322
0.89884
0.8796
0.875844
0.882577
0.878517
0.885988
0.839477
0.861824
0.854519
0.859188
0.872668
0.872939
0.896363
0.91856
0.924809
0.931494
0.959154
0.949244
0.95067
0.932249
0.942313
0.864923
0.867835
0.767733
0.76014
0.722756
0.667103
0.658013
0.655444
0.62177
0.494113
0.474405
0.449231
0.164258
0.078802
0.0791488
0.0901593
0.103609
0.107611
0.121055
0.116668
0.130123
0.119841
0.132499
0.119305
0.13746
0.126446
0.137427
0.12449
0.135009
0.125675
0.129921
0.123865
0.125341
0.131243
0.135542
0.136878
0.14066
0.140829
0.148088
0.164636
0.17251
0.190481
0.21797
0.202873
0.218099
0.203519
0.207359
0.209578
0.216623
0.210943
0.204253
0.20141
0.213351
0.188016
0.187655
0.185402
0.192176
0.186947
0.191773
0.190597
0.194429
0.185622
0.194976
0.196769
0.201419
0.22811
0.215102
0.214915
0.217486
0.228047
0.249742
0.257154
0.249052
0.243419
0.209528
0.191926
0.199392
0.194335
0.20478
0.196228
0.206497
0.197976
0.201765
0.186805
0.173503
0.165244
0.166526
0.157752
0.161034
0.143351
0.141592
0.13121
0.125848
0.12708
0.134397
0.131062
0.135199
0.134728
0.137626
0.121834
0.127449
0.109096
0.0960306
0.0739138
0.0732959
0.0686969
0.0759502
0.0691074
0.070709
0.0706147
0.0753279
0.0727476
0.0761661
0.080562
0.0900147
0.0982583
0.104436
0.104043
0.119839
0.127729
0.131871
0.131952
0.132687
0.130159
0.136987
0.160844
0.154838
0.145799
0.134215
0.158404
0.159218
0.136589
0.132188
0.144968
0.138109
0.136828
0.136806
0.138802
0.144804
0.155998
0.164971
0.174893
0.173034
0.169318
0.171641
0.178688
0.182338
0.194107
0.185229
0.18932
0.198094
0.20342
0.198619
0.219539
0.219012
0.221592
0.226352
0.231936
0.232986
0.248646
0.237805
0.247224
0.247839
0.249828
0.251954
0.276185
0.28651
0.280135
0.280145
0.297814
0.285898
0.298109
0.329973
0.349132
0.364946
0.359301
0.385269
0.404834
0.406424
0.431226
0.473921
0.520444
0.532621
0.604199
0.609015
0.668479
0.651735
0.659323
0.655894
0.670858
0.660345
0.663931
0.681143
0.665682
0.671335
0.657674
0.655075
0.632297
0.626273
0.61283
0.626532
0.597156
0.631968
0.648912
0.640945
0.656403
0.657655
0.659107
0.725186
0.826513
0.846666
0.915036
0.946841
0.955832
1.00966
1.08975
1.0887
1.12034
1.15248
1.09382
0.985893
0.9657
0.958226
0.934292
0.898941
0.882793
0.88395
0.867677
0.900941
0.899688
0.891379
0.899655
0.901305
0.899854
0.916253
0.900169
0.916643
0.880645
0.903381
0.890422
0.887613
0.869006
0.857794
0.880792
0.878158
0.888712
0.88058
0.884632
0.876897
0.882766
0.880087
0.904496
0.908939
0.909272
0.911348
0.913957
0.907624
0.914834
0.944033
0.921339
0.91259
0.933358
0.937961
0.904655
0.880794
0.888866
0.883742
0.876689
0.88888
0.871216
0.924201
0.912237
0.927778
0.921295
0.943656
0.924396
0.931469
0.938182
0.946884
0.946862
0.85152
0.84604
0.705416
0.72504
0.628924
0.699885
0.694395
0.591967
0.538588
0.400392
0.392205
0.124377
0.0746737
0.0818577
0.095408
0.101757
0.117352
0.113952
0.128158
0.120397
0.130075
0.122159
0.133317
0.125505
0.139198
0.127062
0.140982
0.126517
0.133744
0.126954
0.126692
0.131245
0.13869
0.14174
0.146982
0.141839
0.150335
0.15709
0.148312
0.178543
0.216128
0.211962
0.226729
0.214411
0.220812
0.206847
0.207434
0.218296
0.209268
0.204873
0.216421
0.204114
0.214352
0.20681
0.182756
0.192101
0.192154
0.194476
0.202785
0.196684
0.186204
0.20186
0.200881
0.203413
0.213697
0.215343
0.215523
0.229431
0.230858
0.241129
0.258882
0.257237
0.255152
0.228405
0.203611
0.195582
0.200161
0.20021
0.199668
0.201452
0.204343
0.202273
0.200533
0.172278
0.168488
0.165358
0.162088
0.170376
0.161274
0.143958
0.140013
0.134305
0.133756
0.141385
0.142706
0.137562
0.145475
0.126464
0.134579
0.120142
0.122189
0.105735
0.0901923
0.0720641
0.0730724
0.0707185
0.0736267
0.0699568
0.0714649
0.0712558
0.0760211
0.0775004
0.082484
0.0885851
0.085463
0.095982
0.103355
0.113901
0.117965
0.12851
0.130689
0.135916
0.135059
0.135347
0.14682
0.160181
0.145534
0.138168
0.131407
0.133401
0.139507
0.137345
0.132762
0.146499
0.132401
0.157385
0.135549
0.14721
0.15017
0.159453
0.179194
0.164062
0.174012
0.175251
0.179721
0.180693
0.185829
0.19588
0.186138
0.189176
0.209947
0.209186
0.208565
0.218624
0.214298
0.237788
0.224827
0.239552
0.233405
0.242772
0.236685
0.244017
0.250445
0.251439
0.264064
0.272408
0.28644
0.279351
0.277711
0.292648
0.301156
0.324783
0.336539
0.348831
0.352484
0.38364
0.401325
0.411196
0.439331
0.494063
0.482351
0.57642
0.54664
0.626888
0.602486
0.626033
0.646973
0.654433
0.630876
0.654283
0.676729
0.672303
0.670727
0.657643
0.651927
0.639635
0.643827
0.629325
0.6281
0.615106
0.634045
0.670553
0.67039
0.676067
0.667642
0.683432
0.681047
0.743948
0.821373
0.823758
0.857797
0.914108
0.929786
0.945734
1.01428
1.07672
1.0418
1.06487
1.03076
0.977213
0.93771
0.893769
0.877786
0.855365
0.861947
0.83132
0.869281
0.870246
0.883438
0.889653
0.8717
0.895681
0.890176
0.904532
0.896492
0.887609
0.880931
0.872573
0.882509
0.882359
0.868245
0.881212
0.863094
0.87165
0.848698
0.883199
0.867966
0.877705
0.861921
0.890989
0.865814
0.890073
0.870346
0.895763
0.884794
0.912176
0.88947
0.919995
0.898782
0.929086
0.901729
0.905739
0.89488
0.858547
0.842004
0.860233
0.862112
0.880938
0.867811
0.901363
0.903427
0.905696
0.919412
0.91713
0.93139
0.945007
0.955777
0.927457
0.88916
0.914713
0.768802
0.744823
0.705103
0.697689
0.650073
0.661481
0.597144
0.57395
0.441056
0.424439
0.131394
0.0766995
0.0860422
0.091676
0.104138
0.106129
0.120516
0.115837
0.129774
0.121857
0.133031
0.131988
0.140223
0.128382
0.138505
0.125811
0.138956
0.129145
0.137426
0.131778
0.131243
0.135835
0.13959
0.134567
0.141742
0.143739
0.147198
0.153673
0.173499
0.193108
0.22071
0.213909
0.229606
0.215444
0.21488
0.210937
0.216376
0.207607
0.208863
0.216971
0.219972
0.215997
0.217956
0.201698
0.19628
0.190547
0.190444
0.200788
0.187257
0.191092
0.183802
0.199303
0.205464
0.216113
0.221424
0.217579
0.216939
0.21764
0.229641
0.24404
0.250849
0.255135
0.251693
0.236248
0.210877
0.197055
0.209055
0.205199
0.205055
0.202194
0.203242
0.197361
0.174647
0.173592
0.171066
0.161649
0.161825
0.160923
0.141042
0.142564
0.131376
0.12792
0.131697
0.138388
0.142016
0.135341
0.142628
0.128246
0.125214
0.1124
0.11131
0.0795905
0.0853868
0.079117
0.075093
0.0760167
0.0710712
0.0683492
0.0772386
0.0790426
0.0822116
0.080693
0.0869346
0.0939312
0.107607
0.10796
0.118017
0.125758
0.132945
0.135641
0.135836
0.137719
0.145001
0.135629
0.142327
0.131446
0.137538
0.133547
0.142555
0.133447
0.130611
0.14533
0.131562
0.137116
0.133931
0.140531
0.142529
0.149853
0.157267
0.152102
0.165518
0.164691
0.169647
0.165313
0.182294
0.190728
0.183871
0.18898
0.18887
0.189536
0.198454
0.22823
0.219598
0.2241
0.222011
0.228275
0.230917
0.238084
0.240109
0.239795
0.242558
0.245716
0.254371
0.267981
0.265225
0.270401
0.27358
0.279107
0.278375
0.286274
0.301472
0.316415
0.332387
0.34974
0.366258
0.377487
0.398125
0.432194
0.464727
0.516741
0.528163
0.575587
0.59392
0.63946
0.638078
0.670992
0.652983
0.654839
0.650513
0.666413
0.680421
0.678498
0.662561
0.643018
0.656545
0.640841
0.643264
0.615346
0.61057
0.602072
0.624859
0.656916
0.65356
0.669097
0.658962
0.661579
0.702397
0.7747
0.800444
0.88481
0.900614
0.95258
0.98462
1.07063
1.11748
1.12284
1.11234
1.088
1.04798
0.997427
0.973961
0.91318
0.879874
0.848395
0.905266
0.889458
0.890959
0.905229
0.894923
0.900217
0.917698
0.898007
0.931714
0.919011
0.930829
0.898834
0.924082
0.89739
0.939997
0.890309
0.894946
0.911562
0.905284
0.915125
0.903161
0.923267
0.904848
0.928004
0.916442
0.938405
0.920744
0.940827
0.907827
0.928887
0.931791
0.944499
0.938041
0.940083
0.926126
0.970079
0.933041
0.896393
0.874975
0.829875
0.84674
0.84012
0.847768
0.872035
0.880478
0.898288
0.90202
0.909314
0.895614
0.900021
0.916643
0.918615
0.93118
0.928347
0.842559
0.872684
0.738493
0.757075
0.613022
0.721009
0.706847
0.684292
0.568298
0.578702
0.45293
0.138507
0.0726978
0.0879014
0.092942
0.0939149
0.113165
0.113682
0.123901
0.125977
0.133995
0.121437
0.134293
0.13172
0.141471
0.129419
0.138087
0.125589
0.144507
0.132805
0.14755
0.131164
0.144267
0.142966
0.146451
0.143286
0.151192
0.144923
0.154039
0.174089
0.185718
0.212303
0.227782
0.223498
0.231065
0.230032
0.218713
0.212149
0.207017
0.21169
0.199336
0.218376
0.211168
0.219179
0.220339
0.207023
0.196184
0.205034
0.192339
0.205028
0.193589
0.196386
0.198494
0.21874
0.223472
0.212888
0.218109
0.229098
0.218457
0.230525
0.239661
0.247373
0.253408
0.250114
0.257293
0.233066
0.20429
0.212375
0.198573
0.1995
0.20116
0.199987
0.199591
0.189598
0.181433
0.173501
0.169472
0.158816
0.165913
0.148973
0.13984
0.135521
0.135097
0.13047
0.142857
0.143193
0.146611
0.140566
0.136744
0.122074
0.13331
0.104975
0.0903761
0.0850187
0.0909087
0.0822255
0.079489
0.0776776
0.0828222
0.0771622
0.0788633
0.0783673
0.0894957
0.0973253
0.101422
0.104735
0.117351
0.11694
0.129658
0.133915
0.13348
0.128331
0.148856
0.141804
0.135694
0.133656
0.13741
0.136684
0.139855
0.129213
0.128664
0.130405
0.134873
0.135486
0.133446
0.134588
0.136048
0.143572
0.145212
0.151667
0.158504
0.155378
0.162153
0.165374
0.160673
0.167281
0.181821
0.179537
0.18574
0.182078
0.191146
0.205034
0.204324
0.203424
0.213291
0.232848
0.232416
0.236591
0.2435
0.245381
0.244454
0.249525
0.241477
0.252911
0.260648
0.274917
0.265605
0.279637
0.27258
0.292914
0.297331
0.302463
0.309495
0.331483
0.333908
0.351852
0.366065
0.377746
0.396401
0.441625
0.457117
0.513535
0.528425
0.583969
0.602147
0.596091
0.626027
0.630624
0.62992
0.637839
0.657149
0.649813
0.663091
0.655547
0.651221
0.667743
0.650977
0.629154
0.632197
0.602803
0.615208
0.617245
0.640261
0.65795
0.650107
0.650053
0.683026
0.705262
0.768229
0.791903
0.812446
0.89067
0.892854
0.989994
1.02974
1.12512
1.08427
1.12107
1.03226
1.01379
0.957171
0.92828
0.895742
0.84821
0.83802
0.854114
0.842827
0.86829
0.84573
0.874223
0.848057
0.871407
0.85499
0.877818
0.850832
0.857729
0.845358
0.861113
0.840548
0.86603
0.837854
0.867398
0.832917
0.867933
0.835192
0.881014
0.849599
0.894982
0.855251
0.902695
0.860897
0.908282
0.856471
0.899903
0.858708
0.899072
0.87389
0.905702
0.864942
0.905507
0.877635
0.912425
0.855189
0.856603
0.834011
0.833569
0.83227
0.841328
0.852176
0.861099
0.858044
0.863032
0.873983
0.871385
0.88606
0.884784
0.878304
0.897942
0.920124
0.937657
0.815593
0.769627
0.710003
0.644016
0.691345
0.722297
0.648274
0.556733
0.598798
0.463703
0.158799
0.0699693
0.0831821
0.0960245
0.108366
0.114605
0.127901
0.12347
0.132712
0.124798
0.133591
0.136934
0.137847
0.130855
0.142267
0.133548
0.141769
0.130515
0.135556
0.133207
0.150759
0.138045
0.141342
0.138245
0.14255
0.141609
0.146827
0.154486
0.153094
0.184682
0.221778
0.221946
0.214732
0.230296
0.228162
0.221418
0.210237
0.227771
0.210012
0.212614
0.207233
0.21668
0.208656
0.222623
0.210544
0.230612
0.217885
0.212637
0.200431
0.208255
0.211292
0.226808
0.229914
0.227299
0.220504
0.224361
0.218149
0.221202
0.219693
0.240476
0.247049
0.264494
0.281259
0.257631
0.28514
0.233326
0.206206
0.214528
0.200883
0.204908
0.206642
0.199996
0.197545
0.183802
0.190166
0.172717
0.176352
0.162627
0.157799
0.142361
0.134089
0.131987
0.140041
0.134383
0.145716
0.144532
0.147456
0.133409
0.134285
0.12079
0.117898
0.0878541
0.0887536
0.0810267
0.0868301
0.075738
0.0760514
0.0772829
0.0767739
0.0804854
0.0848354
0.0864496
0.0892119
0.0875249
0.096825
0.0969601
0.103552
0.111902
0.124235
0.127092
0.134329
0.13252
0.131481
0.13935
0.147927
0.134592
0.127908
0.123967
0.121851
0.129312
0.134404
0.129325
0.134948
0.132249
0.139546
0.150259
0.140412
0.1475
0.16141
0.147534
0.154566
0.162912
0.160198
0.154849
0.16441
0.170399
0.166162
0.171422
0.179363
0.169455
0.186423
0.195906
0.197618
0.201677
0.198469
0.215439
0.218726
0.230145
0.226416
0.236867
0.233139
0.24773
0.23382
0.247248
0.245562
0.258245
0.256507
0.274115
0.275606
0.287312
0.285737
0.309867
0.319347
0.345191
0.358826
0.374602
0.399059
0.439465
0.453067
0.519771
0.510943
0.579887
0.586025
0.627703
0.627165
0.637159
0.636947
0.644981
0.644168
0.654236
0.665492
0.667591
0.652168
0.649721
0.636213
0.642746
0.642053
0.618972
0.61602
0.609238
0.632817
0.659529
0.639417
0.658492
0.674465
0.704191
0.718815
0.806166
0.825214
0.859547
0.913499
0.936869
0.962122
1.02696
1.08638
1.09476
1.0518
1.03759
0.992211
0.947782
0.912628
0.90327
0.867357
0.837856
0.85187
0.870809
0.871377
0.864668
0.874687
0.894616
0.891668
0.889304
0.897683
0.899689
0.909561
0.891417
0.884841
0.891936
0.897314
0.909846
0.903598
0.909186
0.887624
0.908405
0.896677
0.89625
0.874921
0.894186
0.885137
0.907607
0.894238
0.913571
0.883074
0.904823
0.890789
0.917275
0.901235
0.92916
0.919975
0.948714
0.923721
0.924335
0.8866
0.862474
0.88027
0.860715
0.873569
0.879346
0.899643
0.875458
0.888426
0.884626
0.908653
0.891393
0.915724
0.918028
0.948239
0.929131
0.827709
0.841151
0.727167
0.723696
0.631462
0.720449
0.699194
0.576655
0.505303
0.469884
0.465281
0.142346
0.0726954
0.0863301
0.0973316
0.10571
0.123481
0.118574
0.127946
0.121348
0.13388
0.129458
0.141008
0.130245
0.143881
0.132625
0.140349
0.135977
0.147138
0.136589
0.151619
0.151739
0.16253
0.145407
0.145557
0.143911
0.148933
0.147467
0.148575
0.151278
0.177915
0.215647
0.219478
0.227553
0.22954
0.213187
0.220508
0.215585
0.20766
0.213345
0.206041
0.215942
0.201069
0.213073
0.207391
0.215959
0.209524
0.228424
0.214628
0.212335
0.221698
0.229034
0.220968
0.22765
0.224787
0.228672
0.222926
0.214526
0.217538
0.221522
0.216337
0.25456
0.268633
0.266858
0.27855
0.268358
0.246228
0.22051
0.219148
0.211077
0.204735
0.206494
0.20884
0.198242
0.187964
0.181888
0.178048
0.170156
0.162295
0.164003
0.14735
0.142234
0.141716
0.139795
0.142357
0.144152
0.149111
0.144355
0.143079
0.130073
0.130087
0.113408
0.109308
0.0869677
0.0907983
0.0794362
0.0843196
0.0797604
0.0860914
0.073555
0.0806921
0.0793839
0.0842909
0.0845352
0.0870563
0.0895378
0.101252
0.101671
0.118775
0.125754
0.121851
0.134134
0.13978
0.132035
0.137745
0.133971
0.128918
0.124477
0.134327
0.137095
0.127811
0.152245
0.127377
0.132102
0.136173
0.154241
0.142166
0.147867
0.13865
0.153227
0.149348
0.157979
0.151452
0.162353
0.16457
0.162972
0.168261
0.194962
0.166964
0.187088
0.188214
0.195642
0.188032
0.200894
0.195586
0.201019
0.199483
0.234696
0.215553
0.232518
0.224152
0.235773
0.230868
0.247016
0.242219
0.270975
0.257042
0.264799
0.259381
0.268727
0.277269
0.297376
0.293099
0.335298
0.33883
0.362156
0.369951
0.404679
0.419677
0.484239
0.486398
0.545261
0.549375
0.597073
0.610657
0.618284
0.619968
0.644511
0.649327
0.652315
0.644671
0.664861
0.651066
0.656795
0.656399
0.636885
0.644619
0.631154
0.619112
0.607554
0.61978
0.62821
0.650638
0.654599
0.659423
0.67491
0.69286
0.711651
0.814048
0.825633
0.864436
0.880777
0.902864
0.927991
0.994004
1.06163
1.08704
1.1005
1.06382
0.974113
0.947352
0.927512
0.897977
0.86804
0.852199
0.845495
0.875625
0.853129
0.872582
0.859141
0.884151
0.891628
0.908047
0.8866
0.89692
0.895864
0.898064
0.878462
0.90091
0.888235
0.904497
0.905383
0.897946
0.893418
0.89625
0.894732
0.894956
0.890443
0.903366
0.908737
0.898495
0.90098
0.903512
0.918172
0.901267
0.911366
0.902641
0.915873
0.936411
0.946252
0.936942
0.937575
0.915973
0.909559
0.879184
0.885968
0.89563
0.897671
0.887403
0.887062
0.900824
0.879493
0.890385
0.895703
0.901088
0.901751
0.921135
0.930106
0.911258
0.930436
0.816862
0.765639
0.689776
0.722396
0.697624
0.671919
0.562157
0.538519
0.383543
0.401591
0.140046
0.0700046
0.0901828
0.0953873
0.115065
0.114123
0.12569
0.125507
0.132045
0.131966
0.143207
0.134365
0.143722
0.133149
0.141174
0.130089
0.142448
0.139642
0.144706
0.149025
0.153219
0.149279
0.156423
0.153939
0.147727
0.142831
0.154981
0.153769
0.155163
0.183723
0.19759
0.217035
0.226285
0.229157
0.227457
0.228061
0.216305
0.208504
0.207118
0.209089
0.211472
0.21754
0.202704
0.211955
0.208389
0.219278
0.214053
0.220541
0.219179
0.224187
0.235122
0.225491
0.218367
0.230312
0.22372
0.222152
0.221941
0.223053
0.217337
0.222839
0.236764
0.269727
0.276718
0.279009
0.273772
0.271891
0.259351
0.20603
0.209959
0.203113
0.202321
0.215645
0.210568
0.206391
0.191004
0.184865
0.179785
0.168777
0.162774
0.161124
0.141813
0.138706
0.144064
0.13624
0.143956
0.150476
0.151565
0.133585
0.140861
0.129205
0.129099
0.108905
0.103143
0.0845523
0.100418
0.0823941
0.0894493
0.0807192
0.0861352
0.0804166
0.0856563
0.0836071
0.0885684
0.0840971
0.0949069
0.102266
0.10693
0.109216
0.107499
0.117733
0.133137
0.117392
0.135672
0.12229
0.136537
0.124283
0.124995
0.114946
0.112416
0.114179
0.126087
0.126878
0.126868
0.129685
0.141798
0.155442
0.144704
0.150306
0.152689
0.162905
0.151503
0.16058
0.161394
0.166436
0.164707
0.180403
0.185395
0.197893
0.190833
0.179943
0.189737
0.204838
0.196001
0.206208
0.20214
0.210868
0.208268
0.22851
0.222436
0.225358
0.225073
0.248027
0.231063
0.254462
0.250761
0.276915
0.267741
0.284541
0.285458
0.292665
0.304687
0.330397
0.329754
0.35438
0.369694
0.390643
0.406969
0.440715
0.450166
0.493019
0.516955
0.573746
0.576613
0.606209
0.596152
0.621532
0.617765
0.640216
0.635115
0.645038
0.658574
0.66046
0.677778
0.668424
0.667804
0.658998
0.649095
0.647672
0.638205
0.665659
0.694835
0.714437
0.70371
0.711303
0.727634
0.710798
0.718618
0.751554
0.777691
0.796633
0.828824
0.864063
0.873384
0.938939
1.00923
1.03907
1.02501
1.00644
0.949104
0.899001
0.906631
0.822886
0.871578
0.806878
0.855569
0.842952
0.846357
0.842692
0.844387
0.843865
0.845383
0.864814
0.86828
0.874834
0.839011
0.865878
0.849915
0.876114
0.866228
0.903376
0.861893
0.906375
0.892991
0.921189
0.893513
0.935134
0.896814
0.929025
0.906738
0.935758
0.900361
0.93769
0.90287
0.941636
0.898804
0.944516
0.905984
0.958534
0.92372
0.959852
0.916898
0.939721
0.894362
0.901708
0.863494
0.907382
0.87352
0.894742
0.875916
0.896629
0.878992
0.907022
0.878544
0.915113
0.888046
0.919401
0.899727
0.893235
0.798053
0.812931
0.707737
0.715528
0.66454
0.723238
0.678668
0.673288
0.602759
0.539661
0.445017
0.145645
0.0680844
0.0856434
0.0961063
0.103285
0.126199
0.119247
0.134951
0.138804
0.138863
0.139018
0.143022
0.13704
0.139136
0.127687
0.14783
0.134467
0.1393
0.128932
0.149513
0.145326
0.156345
0.150032
0.152512
0.143121
0.145917
0.144931
0.151231
0.161513
0.164339
0.206551
0.236897
0.247876
0.235549
0.231019
0.231624
0.227197
0.216037
0.21756
0.216749
0.213498
0.21199
0.205933
0.209344
0.214901
0.220057
0.219313
0.229357
0.224437
0.216058
0.224483
0.233067
0.225441
0.235828
0.223998
0.21837
0.225806
0.221345
0.22168
0.223322
0.219166
0.249753
0.272346
0.283955
0.283621
0.28805
0.271237
0.234379
0.209498
0.229207
0.207556
0.209095
0.214658
0.219049
0.195191
0.196272
0.185682
0.175577
0.170274
0.166817
0.147004
0.143049
0.142837
0.140478
0.143516
0.154128
0.149863
0.14843
0.139865
0.145258
0.133614
0.123191
0.101102
0.102063
0.089634
0.097068
0.0862818
0.087252
0.0834339
0.0880811
0.0866281
0.0941779
0.095132
0.0969147
0.0998563
0.105992
0.108727
0.1081
0.120136
0.136743
0.134946
0.129646
0.136092
0.134715
0.137499
0.143699
0.123058
0.12278
0.127613
0.142123
0.117736
0.113357
0.127153
0.11977
0.12121
0.127392
0.13134
0.129175
0.149494
0.146983
0.143805
0.151755
0.154839
0.162363
0.15672
0.179518
0.171334
0.166361
0.183057
0.175515
0.18028
0.184208
0.196629
0.201475
0.218607
0.221042
0.229841
0.220865
0.233576
0.230666
0.231079
0.256451
0.257018
0.26141
0.259236
0.251556
0.267059
0.254273
0.280584
0.261677
0.292049
0.289316
0.31249
0.314314
0.334947
0.355941
0.355137
0.368161
0.421557
0.453848
0.48443
0.495414
0.498885
0.52392
0.529995
0.563814
0.535902
0.592177
0.555826
0.608406
0.565903
0.648943
0.594068
0.602422
0.615098
0.606694
0.619026
0.59306
0.597114
0.57426
0.60193
0.598937
0.641756
0.658098
0.623558
0.625993
0.626058
0.692027
0.697198
0.715542
0.764828
0.765247
0.906042
0.874418
0.97914
0.942909
1.03006
0.939583
0.955548
0.864032
0.853784
0.849796
0.853282
0.833204
0.847318
0.834907
0.840954
0.823673
0.85263
0.820692
0.858946
0.816502
0.862748
0.812903
0.85819
0.799227
0.871452
0.800655
0.862754
0.821145
0.872903
0.824055
0.881449
0.833813
0.89225
0.848015
0.899485
0.841137
0.902964
0.85749
0.915815
0.876551
0.931825
0.86644
0.922745
0.867256
0.926884
0.874583
0.934958
0.873146
0.922155
0.827443
0.885066
0.812584
0.854704
0.830683
0.863478
0.815619
0.854419
0.817115
0.850513
0.822318
0.867452
0.845315
0.87485
0.871899
0.90321
0.904358
0.925891
0.787531
0.782586
0.702833
0.694753
0.708129
0.739316
0.679172
0.579483
0.584286
0.452658
0.150957
0.0719966
0.084843
0.0971327
0.113849
0.122119
0.134118
0.136747
0.138111
0.139675
0.145492
0.142696
0.139535
0.142514
0.142619
0.139296
0.147468
0.129469
0.152872
0.145641
0.15551
0.153858
0.159701
0.155392
0.157061
0.156451
0.153987
0.160169
0.161387
0.177626
0.209146
0.266231
0.265309
0.240402
0.245075
0.24466
0.242453
0.22178
0.223723
0.215789
0.212051
0.21113
0.21136
0.208838
0.214501
0.221838
0.216442
0.229102
0.221073
0.228321
0.228772
0.230899
0.228913
0.223652
0.224161
0.22167
0.218715
0.21982
0.226469
0.222963
0.237971
0.230413
0.274296
0.276518
0.291393
0.289228
0.280987
0.257604
0.220313
0.208157
0.211886
0.210154
0.215988
0.212797
0.19812
0.195312
0.184347
0.176367
0.16262
0.17062
0.149123
0.139173
0.145229
0.142001
0.149015
0.148917
0.159414
0.154741
0.148454
0.143726
0.144647
0.123867
0.120728
0.0987317
0.105541
0.0943128
0.100865
0.103745
0.0969949
0.105891
0.111218
0.105186
0.113678
0.115037
0.116853
0.116462
0.116229
0.120297
0.119537
0.116527
0.119913
0.107909
0.109356
0.103016
0.0969276
0.108619
0.0901055
0.0732616
0.0896889
0.0635234
0.0702036
0.0909568
0.0727621
0.0834378
0.104321
0.119902
0.125983
0.136716
0.145402
0.146575
0.131591
0.164166
0.143429
0.158833
0.158481
0.170939
0.180162
0.194107
0.168771
0.183116
0.183599
0.207628
0.189733
0.195998
0.190773
0.209507
0.209473
0.215939
0.220772
0.227711
0.215929
0.222741
0.224433
0.246939
0.222619
0.253065
0.243404
0.275221
0.25141
0.269691
0.272691
0.292478
0.300371
0.343265
0.347332
0.3685
0.363019
0.412501
0.436685
0.480512
0.499109
0.558832
0.572767
0.606683
0.614901
0.620826
0.614039
0.61722
0.616289
0.626098
0.643077
0.651357
0.645296
0.648641
0.631965
0.64206
0.631408
0.621049
0.625525
0.616657
0.623909
0.646895
0.666855
0.645711
0.648613
0.659259
0.70694
0.739347
0.779182
0.783864
0.830261
0.861716
0.905279
0.959399
1.00024
1.01065
0.99587
1.01117
0.963352
0.926682
0.882874
0.871386
0.846467
0.832301
0.842607
0.870782
0.859682
0.845063
0.852541
0.847393
0.862067
0.854035
0.863831
0.874451
0.873364
0.883263
0.886752
0.893801
0.878447
0.907833
0.911457
0.916472
0.897731
0.928367
0.905146
0.943316
0.910909
0.953512
0.907177
0.95301
0.931932
0.956084
0.902721
0.96636
0.932238
0.95425
0.933396
0.971969
0.957099
0.987834
0.952222
0.921215
0.920092
0.909873
0.914783
0.900305
0.891501
0.898359
0.890983
0.873701
0.893914
0.890792
0.908152
0.892405
0.909158
0.914197
0.918883
0.932969
0.810875
0.843862
0.76196
0.746967
0.690421
0.761542
0.71653
0.601416
0.588104
0.486413
0.490764
0.156456
0.0729557
0.0877361
0.0968551
0.119336
0.132933
0.134772
0.1368
0.141083
0.134406
0.14302
0.141795
0.137501
0.140455
0.141421
0.145699
0.137306
0.145812
0.14521
0.15611
0.144835
0.151691
0.150501
0.159349
0.157607
0.156123
0.149686
0.169673
0.177034
0.180983
0.21852
0.266359
0.263022
0.265063
0.260301
0.247751
0.259763
0.235786
0.250425
0.234456
0.232889
0.217382
0.219956
0.2165
0.21921
0.216946
0.222625
0.225709
0.231048
0.220713
0.232119
0.233401
0.242031
0.221451
0.217798
0.223155
0.222665
0.22383
0.222605
0.237152
0.230593
0.234549
0.256596
0.284119
0.284006
0.294697
0.31075
0.283872
0.261407
0.221024
0.211416
0.206934
0.204813
0.219105
0.221468
0.200717
0.191761
0.186914
0.168692
0.173237
0.163244
0.147173
0.145004
0.16557
0.175529
0.166713
0.16856
0.168261
0.159861
0.162085
0.160227
0.14415
0.133005
0.135539
0.130604
0.128972
0.131976
0.126712
0.121453
0.120612
0.121941
0.123966
0.125401
0.125518
0.124579
0.127516
0.124508
0.127219
0.131343
0.119727
0.115062
0.118487
0.118235
0.12209
0.113069
0.10323
0.118218
0.117573
0.10503
0.0939294
0.10336
0.0864712
0.0971911
0.0853464
0.10012
0.0995348
0.110691
0.115217
0.12233
0.110468
0.118903
0.115213
0.147492
0.13355
0.125307
0.128187
0.125652
0.172431
0.126788
0.154432
0.175478
0.149664
0.179658
0.200158
0.189509
0.194658
0.201898
0.23492
0.223523
0.213769
0.226485
0.211663
0.220671
0.228912
0.226473
0.224906
0.245733
0.23564
0.265298
0.249482
0.271743
0.290674
0.305785
0.329488
0.325475
0.336481
0.357959
0.3691
0.417429
0.452633
0.515854
0.530131
0.577703
0.588381
0.596174
0.605073
0.620267
0.603977
0.618526
0.625421
0.640181
0.649711
0.631556
0.6221
0.637274
0.615079
0.633719
0.612468
0.618303