/*--------------------------------*- C++ -*----------------------------------*\
| =========                 |                                                 |
| \\      /  F ield         | OpenFOAM: The Open Source CFD Toolbox           |
|  \\    /   O peration     | Version:  2312                                  |
|   \\  /    A nd           | Website:  www.openfoam.com                      |
|    \\/     M anipulation  |                                                 |
\*---------------------------------------------------------------------------*/
FoamFile
{
    version     2.0;
    format      ascii;
    arch        "LSB;label=32;scalar=64";
    class       volScalarField;
    location    "constant";
    object      Dwf;
}
// * * * * * * * * * * * * * * * * * * * * * * * * * * * * * * * * * * * * * //

dimensions      [0 0 0 0 0 0 0];

internalField   nonuniform List<scalar> 
154566
(
0.280696
0.485982
0.562362
0.584148
0.637239
0.677251
0.773148
0.828181
0.86114
0.899894
0.885058
0.898727
0.867547
0.85898
0.858906
0.858362
0.840109
0.848461
0.86449
0.866773
0.862212
0.859258
0.861781
0.841614
0.836924
0.815879
0.817678
0.788503
0.794421
0.801044
0.812656
0.800383
0.819667
0.801736
0.815889
0.809097
0.833801
0.833978
0.849228
0.857604
0.855342
0.860885
0.847255
0.85751
0.852185
0.846448
0.839674
0.836549
0.830895
0.828277
0.8326
0.817136
0.852679
0.849119
0.86083
0.880044
0.916513
0.910836
0.911808
0.921546
0.915813
0.914401
0.915737
0.917381
0.920011
0.909109
0.904969
0.901362
0.903483
0.903013
0.843521
0.806877
0.812946
0.770715
0.746419
0.722892
0.638885
0.577487
0.591029
0.561343
0.570107
0.547318
0.572454
0.540501
0.557335
0.515135
0.530813
0.472876
0.505713
0.41516
0.376407
0.27317
0.277631
0.24767
0.258793
0.242618
0.271058
0.265501
0.26967
0.281893
0.327463
0.341933
0.361992
0.4187
0.459641
0.476277
0.487405
0.490555
0.50237
0.526821
0.510158
0.484408
0.488092
0.469849
0.474548
0.479311
0.464666
0.460742
0.433285
0.431976
0.407976
0.39276
0.369749
0.368723
0.367072
0.364452
0.360301
0.357743
0.374808
0.373617
0.367337
0.390464
0.357513
0.367165
0.370523
0.375123
0.403137
0.403106
0.378561
0.396515
0.394835
0.412558
0.401364
0.404825
0.430909
0.441746
0.434599
0.414215
0.439442
0.41958
0.446341
0.431137
0.43325
0.439911
0.413448
0.405418
0.432605
0.40058
0.412574
0.403687
0.428018
0.401478
0.413423
0.422727
0.416481
0.409108
0.420541
0.434127
0.407381
0.450482
0.421707
0.492575
0.454928
0.50686
0.457088
0.502788
0.508559
0.522952
0.502227
0.53746
0.491202
0.547431
0.492327
0.527686
0.508389
0.532398
0.510983
0.50706
0.513038
0.497345
0.485696
0.453509
0.477756
0.44146
0.452111
0.445876
0.442804
0.430997
0.429565
0.421297
0.464374
0.422467
0.46978
0.487756
0.533687
0.554365
0.578828
0.591411
0.661078
0.716134
0.7213
0.792649
0.818472
0.862255
0.868624
0.897272
0.919358
0.940045
0.938822
0.9528
0.976412
0.960264
0.999902
0.993281
1.02301
1.01231
1.04086
1.02963
1.0333
1.03739
1.05724
1.05395
1.06425
1.05378
1.06742
1.04576
1.08567
1.06658
1.08381
1.07467
1.1171
1.10001
1.14956
1.11662
1.151
1.13219
1.15907
1.16447
1.1825
1.18904
1.17474
1.19408
1.18816
1.24138
1.22438
1.27612
1.22803
1.28885
1.21516
1.31555
1.23484
1.27616
1.2272
1.24949
1.20851
1.2225
1.19571
1.22958
1.04137
0.883939
0.902966
0.859413
0.713679
0.749308
0.819096
0.730885
0.649599
0.685686
0.587287
0.281024
0.488306
0.534091
0.59949
0.617079
0.688205
0.804977
0.812651
0.877152
0.872834
0.885224
0.862078
0.862147
0.855601
0.858143
0.847722
0.854019
0.835301
0.843213
0.857586
0.867643
0.851241
0.84832
0.841203
0.830037
0.811916
0.798938
0.810617
0.828413
0.798599
0.807201
0.826447
0.819869
0.837336
0.827309
0.82858
0.823479
0.852888
0.857342
0.849424
0.843074
0.854299
0.860188
0.849784
0.845832
0.848888
0.824183
0.830567
0.821926
0.83008
0.827657
0.844993
0.841483
0.852885
0.88085
0.908871
0.918418
0.920978
0.917433
0.919879
0.924269
0.93068
0.916388
0.920063
0.917604
0.919222
0.908067
0.910973
0.897249
0.895143
0.87285
0.831485
0.798769
0.784035
0.725378
0.731053
0.674308
0.628841
0.58908
0.590724
0.565653
0.571098
0.554361
0.570343
0.530676
0.559245
0.505556
0.522495
0.469518
0.475924
0.339452
0.305197
0.258088
0.274038
0.248089
0.267738
0.260124
0.276252
0.259682
0.281385
0.277783
0.303111
0.333922
0.382136
0.38422
0.440122
0.418814
0.480722
0.459078
0.488691
0.465723
0.480008
0.472122
0.470073
0.459766
0.490735
0.453224
0.43369
0.441904
0.431354
0.446409
0.38761
0.394136
0.368596
0.3781
0.364371
0.374212
0.375586
0.371214
0.377364
0.38222
0.372746
0.385869
0.387054
0.39211
0.40041
0.391521
0.398543
0.406631
0.397952
0.411929
0.414839
0.430993
0.423567
0.4313
0.439677
0.412472
0.432397
0.417434
0.437334
0.437786
0.443985
0.446748
0.434923
0.432609
0.44628
0.443937
0.452311
0.465727
0.468737
0.463903
0.481316
0.491618
0.507092
0.513303
0.519845
0.524416
0.534947
0.553791
0.520519
0.591715
0.557084
0.599206
0.591079
0.629986
0.620282
0.62112
0.626298
0.614105
0.601282
0.602409
0.589976
0.57708
0.591265
0.591193
0.566914
0.595107
0.553366
0.591551
0.59521
0.507504
0.522999
0.526235
0.528986
0.509063
0.532603
0.527136
0.520381
0.476208
0.484282
0.472184
0.473405
0.498553
0.529128
0.548901
0.585979
0.584298
0.677858
0.719683
0.749415
0.776102
0.845267
0.843631
0.927531
0.936954
0.980194
0.975159
1.01609
0.986084
1.04264
1.02469
1.05163
1.04248
1.09094
1.07194
1.11745
1.09688
1.13839
1.12028
1.15485
1.13473
1.17135
1.15036
1.18363
1.16584
1.20366
1.17692
1.20279
1.1886
1.23252
1.20451
1.26367
1.21026
1.26685
1.2142
1.27044
1.218
1.26301
1.22929
1.26192
1.25527
1.27664
1.26913
1.29856
1.29554
1.32183
1.28291
1.32878
1.28882
1.34279
1.31598
1.31352
1.2903
1.27707
1.22847
1.21232
1.18801
1.13481
1.00942
0.841913
0.80223
0.807975
0.760524
0.776441
0.816244
0.800625
0.620067
0.599563
0.626112
0.312228
0.49687
0.5135
0.610494
0.70169
0.723247
0.765842
0.830593
0.82995
0.878197
0.864421
0.852456
0.823002
0.861432
0.845156
0.840911
0.840261
0.855494
0.838607
0.859533
0.854607
0.855452
0.849832
0.837366
0.818401
0.821547
0.797289
0.788093
0.79922
0.825837
0.829928
0.83235
0.838965
0.842271
0.854181
0.837627
0.838306
0.851231
0.868688
0.855243
0.8595
0.846155
0.850622
0.842568
0.838905
0.830877
0.834375
0.830711
0.828068
0.819899
0.833806
0.837411
0.84829
0.849378
0.891603
0.900008
0.909953
0.917567
0.932151
0.940226
0.926659
0.929523
0.924613
0.91545
0.919169
0.909543
0.910539
0.903172
0.902618
0.892045
0.890403
0.824213
0.82046
0.790681
0.765772
0.722425
0.715586
0.626894
0.61137
0.57993
0.576489
0.561539
0.568539
0.542382
0.561427
0.548591
0.561994
0.493235
0.508142
0.441106
0.38416
0.289981
0.282273
0.257788
0.280175
0.251969
0.270894
0.267789
0.272631
0.270555
0.283822
0.285676
0.342456
0.360336
0.390514
0.395975
0.440088
0.466509
0.486894
0.464787
0.481989
0.470641
0.482602
0.471292
0.462656
0.446783
0.439479
0.449111
0.446574
0.435862
0.413539
0.417386
0.379002
0.387305
0.359093
0.392291
0.363179
0.377899
0.357544
0.371679
0.363075
0.351835
0.358231
0.385638
0.371039
0.384299
0.38492
0.38782
0.395429
0.398515
0.393279
0.407417
0.413098
0.402904
0.415528
0.412223
0.409485
0.429138
0.415721
0.443888
0.442758
0.440744
0.423166
0.42741
0.425503
0.433295
0.459371
0.465691
0.456885
0.444633
0.496277
0.497283
0.504273
0.505277
0.510873
0.509893
0.497067
0.517073
0.507171
0.566687
0.532473
0.605912
0.577014
0.631642
0.591284
0.620732
0.616849
0.624505
0.622204
0.618296
0.620456
0.605863
0.573348
0.596767
0.549304
0.572656
0.548558
0.554497
0.540227
0.558802
0.530721
0.517828
0.477919
0.481341
0.472338
0.470768
0.499112
0.457641
0.442923
0.440032
0.416703
0.433641
0.445281
0.465458
0.489836
0.526397
0.563911
0.628668
0.691335
0.714032
0.731469
0.78074
0.802794
0.881143
0.865389
0.939151
0.882872
0.918979
0.93159
0.970437
0.953984
1.01292
0.981395
1.01319
0.99676
1.02848
1.01005
1.04612
1.02669
1.0758
1.06153
1.08904
1.05931
1.10177
1.08738
1.12426
1.09034
1.13375
1.10028
1.13214
1.11204
1.13623
1.11314
1.14396
1.11842
1.14918
1.11839
1.14501
1.10457
1.16173
1.13771
1.21305
1.21587
1.25592
1.2469
1.2688
1.26753
1.28941
1.27782
1.29317
1.26652
1.27326
1.2299
1.23473
1.1948
1.2092
1.17569
1.22154
1.03279
0.899145
0.880067
0.855877
0.720922
0.794875
0.810144
0.745627
0.723724
0.561921
0.564657
0.289734
0.479097
0.570309
0.613344
0.68392
0.726731
0.780282
0.809159
0.824252
0.834908
0.863536
0.814182
0.840683
0.826085
0.844422
0.828459
0.848161
0.838675
0.851927
0.832991
0.852528
0.845472
0.836866
0.831992
0.811015
0.803451
0.774289
0.783804
0.806024
0.848853
0.843058
0.852396
0.844228
0.845084
0.852941
0.86101
0.843993
0.864372
0.864451
0.862112
0.870099
0.869283
0.871556
0.848466
0.843212
0.845944
0.843906
0.841895
0.836668
0.836173
0.835495
0.844764
0.834146
0.885175
0.892544
0.905746
0.906759
0.915023
0.925265
0.926157
0.930919
0.939674
0.923809
0.923336
0.912523
0.911886
0.900555
0.910061
0.897772
0.893178
0.883735
0.864627
0.799965
0.799664
0.765807
0.742916
0.71854
0.699248
0.614679
0.600389
0.581925
0.576075
0.566622
0.574875
0.54879
0.567286
0.517459
0.534767
0.476994
0.479846
0.397617
0.338322
0.2667
0.278855
0.270058
0.278983
0.264815
0.284743
0.264826
0.280055
0.268229
0.302331
0.321543
0.313503
0.344879
0.389615
0.410963
0.433365
0.449816
0.469442
0.471701
0.489503
0.474724
0.478689
0.442255
0.456859
0.432004
0.423854
0.425876
0.432863
0.437143
0.40406
0.424699
0.357082
0.399871
0.357838
0.401692
0.365105
0.408133
0.384374
0.384616
0.373456
0.399299
0.379991
0.398911
0.385157
0.38195
0.391462
0.390427
0.407115
0.415739
0.410194
0.425282
0.417965
0.422753
0.432097
0.428346
0.413812
0.418923
0.42173
0.439273
0.451547
0.435784
0.419859
0.418067
0.45051
0.441326
0.443021
0.446384
0.447183
0.481347
0.492809
0.500654
0.509395
0.545113
0.537821
0.53381
0.546511
0.59195
0.546588
0.603721
0.582205
0.626665
0.584817
0.611409
0.599755
0.611044
0.605465
0.622443
0.628589
0.628131
0.600351
0.61102
0.589819
0.594169
0.570142
0.576094
0.554319
0.58772
0.585902
0.586796
0.552991
0.517969
0.520784
0.500373
0.536299
0.523397
0.513795
0.470946
0.469893
0.48254
0.457611
0.480409
0.508847
0.525705
0.575365
0.591969
0.657825
0.705295
0.745647
0.783052
0.852176
0.868302
0.926639
0.93615
0.963001
0.973618
0.99719
0.994122
1.04991
1.02556
1.07563
1.03929
1.08871
1.05582
1.11596
1.08847
1.1279
1.10392
1.14325
1.12429
1.13776
1.14375
1.15785
1.15971
1.19154
1.17735
1.18793
1.19085
1.22113
1.19777
1.23335
1.19867
1.23801
1.19857
1.23701
1.18602
1.22613
1.18287
1.22838
1.21158
1.24168
1.29562
1.28922
1.30613
1.30209
1.288
1.33957
1.32383
1.35407
1.31191
1.32365
1.26287
1.269
1.23754
1.22367
1.2015
1.1581
1.08183
0.838801
0.826727
0.806485
0.792402
0.769388
0.869648
0.846965
0.778506
0.59438
0.565016
0.270191
0.508954
0.574848
0.600213
0.61288
0.681827
0.755462
0.802561
0.816373
0.841783
0.836237
0.827478
0.824056
0.840935
0.81407
0.838691
0.82551
0.844515
0.838554
0.841664
0.839728
0.857454
0.83365
0.820518
0.818402
0.808288
0.79594
0.783016
0.81185
0.839152
0.837266
0.828094
0.847178
0.841278
0.849141
0.844538
0.848284
0.847714
0.851341
0.851922
0.855686
0.856907
0.886529
0.877347
0.839759
0.847431
0.844843
0.842853
0.841852
0.846746
0.849157
0.850735
0.850436
0.884343
0.894349
0.901645
0.909544
0.896022
0.916326
0.92816
0.925991
0.928556
0.931523
0.91788
0.917167
0.915422
0.91456
0.900723
0.903825
0.882103
0.889637
0.875528
0.821938
0.790319
0.794327
0.724011
0.727204
0.697016
0.626409
0.586023
0.58654
0.553182
0.575539
0.553778
0.569193
0.544712
0.57333
0.50665
0.50533
0.445085
0.433997
0.305005
0.310364
0.268936
0.25975
0.252712
0.257846
0.258109
0.268663
0.266057
0.296418
0.289221
0.303142
0.333237
0.396367
0.39767
0.420783
0.440618
0.476312
0.480037
0.482145
0.482727
0.482504
0.463648
0.45567
0.444568
0.447023
0.423487
0.404099
0.423928
0.404981
0.42204
0.36319
0.398426
0.345083
0.400653
0.360982
0.37481
0.363195
0.394818
0.343835
0.380376
0.351733
0.369411
0.368739
0.385531
0.373813
0.374827
0.392984
0.387678
0.397178
0.408685
0.407159
0.409852
0.406344
0.397867
0.395622
0.396336
0.405621
0.423713
0.426843
0.446396
0.4219
0.438094
0.426313
0.426174
0.441703
0.44678
0.440735
0.432351
0.440335
0.442959
0.46841
0.494061
0.484403
0.49553
0.503334
0.522102
0.530477
0.567618
0.536237
0.607916
0.580149
0.624326
0.595606
0.633283
0.614233
0.613759
0.623895
0.62051
0.620874
0.624411
0.598565
0.601168
0.570702
0.587038
0.548102
0.560725
0.540285
0.569579
0.545078
0.556781
0.547921
0.548189
0.488678
0.477828
0.453651
0.475722
0.446166
0.436277
0.421923
0.427466
0.448645
0.456588
0.485357
0.520248
0.564956
0.600799
0.658019
0.680389
0.755923
0.805999
0.805702
0.873029
0.862454
0.921904
0.887341
0.938215
0.905347
0.981853
0.987876
1.0239
1.00922
1.01781
0.991477
1.06155
1.04908
1.07506
1.06394
1.08889
1.08769
1.11993
1.10182
1.13717
1.12572
1.1535
1.1288
1.15405
1.1416
1.17322
1.15404
1.1724
1.146
1.17846
1.15013
1.16674
1.14391
1.1645
1.1222
1.14882
1.13817
1.19557
1.21623
1.3046
1.29337
1.3124
1.28954
1.32362
1.33115
1.29925
1.2817
1.27868
1.21933
1.22677
1.19633
1.19743
1.13714
1.23205
1.0266
0.951193
0.849327
0.868796
0.682474
0.832412
0.847256
0.827005
0.709321
0.719535
0.592155
0.271405
0.45379
0.550699
0.583141
0.61056
0.661536
0.741119
0.773463
0.805002
0.802949
0.826092
0.793821
0.806686
0.808711
0.825463
0.803732
0.831786
0.816274
0.8168
0.817747
0.820666
0.813262
0.832102
0.817616
0.816249
0.805104
0.79528
0.789343
0.798301
0.820433
0.839961
0.841743
0.849447
0.853491
0.837146
0.856372
0.844973
0.849403
0.849589
0.861821
0.854533
0.864811
0.881164
0.885463
0.874511
0.849469
0.84914
0.843499
0.847629
0.848178
0.846929
0.856327
0.87986
0.88785
0.895942
0.90175
0.904172
0.9082
0.918662
0.922658
0.91308
0.92636
0.930463
0.93697
0.924852
0.922496
0.90189
0.91395
0.894972
0.897784
0.880408
0.890155
0.832604
0.816337
0.783801
0.74341
0.708401
0.711491
0.654579
0.617115
0.583801
0.571179
0.561203
0.557415
0.568612
0.572256
0.53451
0.530005
0.486836
0.507635
0.390757
0.348251
0.297717
0.315432
0.270013
0.265734
0.257068
0.274342
0.275883
0.280144
0.27493
0.312677
0.341056
0.376596
0.386644
0.422079
0.428609
0.478665
0.476521
0.490855
0.457244
0.503532
0.491106
0.469336
0.44945
0.456272
0.450959
0.394232
0.421719
0.402659
0.409398
0.37691
0.407235
0.355232
0.401313
0.361275
0.399342
0.342193
0.385926
0.350976
0.36405
0.344028
0.378897
0.338429
0.356713
0.360174
0.367236
0.368912
0.368997
0.381222
0.386637
0.381395
0.380726
0.392324
0.394857
0.403412
0.411584
0.396187
0.392959
0.420688
0.426072
0.42953
0.415756
0.412792
0.413112
0.413013
0.425289
0.412414
0.425818
0.418513
0.411561
0.429046
0.437229
0.421575
0.424498
0.459824
0.45415
0.464847
0.475537
0.48049
0.516264
0.51582
0.557843
0.557382
0.544477
0.575735
0.576849
0.556571
0.565367
0.572428
0.567816
0.582791
0.595474
0.565222
0.616451
0.566166
0.569252
0.56553
0.570781
0.581714
0.554043
0.562662
0.537751
0.521756
0.518684
0.49561
0.460956
0.459704
0.452604
0.46108
0.432523
0.456523
0.420953
0.449168
0.471368
0.498325
0.541261
0.576454
0.664332
0.686308
0.754747
0.784213
0.839959
0.881265
0.896836
0.912433
0.941596
0.961795
0.964691
0.998354
0.983048
1.03036
1.00041
1.04675
1.02562
1.05685
1.04505
1.08706
1.06044
1.09379
1.07309
1.09747
1.09329
1.1112
1.11359
1.13395
1.12124
1.14072
1.14024
1.15804
1.14262
1.16226
1.15385
1.16933
1.15111
1.16497
1.14793
1.16747
1.14765
1.15929
1.14171
1.15536
1.22281
1.23343
1.30814
1.28634
1.33194
1.32874
1.35527
1.3486
1.32045
1.32477
1.28937
1.2971
1.26283
1.26348
1.2118
1.13566
1.15286
0.871694
0.883979
0.811625
0.724654
0.798039
0.86542
0.818911
0.683956
0.708693
0.615703
0.286849
0.464752
0.522482
0.57276
0.629009
0.690113
0.744433
0.77582
0.789991
0.807789
0.790146
0.805353
0.776379
0.79754
0.802309
0.822655
0.805252
0.830452
0.805148
0.815447
0.813886
0.795198
0.808886
0.818293
0.815613
0.799875
0.808505
0.788242
0.789511
0.79636
0.840305
0.832216
0.833546
0.834787
0.840337
0.834298
0.842884
0.846214
0.852268
0.852794
0.86383
0.868421
0.886423
0.881157
0.890445
0.872194
0.876
0.837308
0.845325
0.843957
0.836592
0.870995
0.887698
0.888794
0.896179
0.8935
0.895676
0.902184
0.902793
0.916856
0.926285
0.919016
0.910253
0.923408
0.937136
0.913682
0.910117
0.899878
0.900124
0.888173
0.886346
0.876819
0.873827
0.799867
0.788561
0.746648
0.730927
0.696811
0.690352
0.607551
0.584344
0.563993
0.575378
0.558671
0.579047
0.567263
0.580342
0.519118
0.529973
0.456064
0.443959
0.319893
0.324044
0.274346
0.281038
0.247617
0.264372
0.264263
0.273392
0.266355
0.278028
0.301295
0.30985
0.307996
0.344415
0.348062
0.366791
0.397227
0.443146
0.447367
0.476474
0.475933
0.459493
0.4684
0.46288
0.416559
0.423138
0.400128
0.382343
0.399443
0.413641
0.401197
0.385809
0.391746
0.368275
0.419817
0.343319
0.407726
0.375075
0.397134
0.368025
0.402583
0.36898
0.388154
0.370891
0.38981
0.355736
0.380139
0.392895
0.376765
0.382918
0.389109
0.391177
0.392801
0.379979
0.411392
0.406758
0.413735
0.427123
0.420154
0.415693
0.445567
0.413006
0.433945
0.412965
0.428833
0.417208
0.448718
0.429781
0.427657
0.427619
0.452519
0.458161
0.483207
0.48875
0.4858
0.52966
0.531276
0.541853
0.594675
0.57637
0.603336
0.599338
0.633788
0.613147
0.631812
0.634506
0.635558
0.608283
0.633437
0.607126
0.621945
0.569338
0.609543
0.582674
0.613527
0.609655
0.582741
0.582701
0.57923
0.58005
0.569281
0.558255
0.552873
0.537796
0.558088
0.527257
0.469497
0.493341
0.472221
0.466472
0.463038
0.448067
0.469028
0.504043
0.527769
0.574783
0.612502
0.658964
0.718964
0.813962
0.818621
0.844962
0.895983
0.900035
0.93747
0.960991
0.972229
0.981956
0.97787
1.01003
1.01832
1.03306
1.0333
1.0557
1.04772
1.07514
1.07576
1.10458
1.08836
1.12433
1.0993
1.14045
1.12413
1.14223
1.13309
1.17473
1.1525
1.18403
1.16886
1.20082
1.16954
1.20893
1.16873
1.21115
1.15524
1.20183
1.1418
1.19467
1.14019
1.18367
1.1649
1.22242
1.25292
1.26504
1.30325
1.32999
1.3484
1.3388
1.34607
1.32109
1.28737
1.25113
1.22138
1.22085
1.1959
1.21381
1.24731
0.991791
0.904117
0.821317
0.798125
0.702673
0.812981
0.833967
0.764536
0.632115
0.567503
0.616948
0.281311
0.455012
0.552987
0.567328
0.679815
0.681407
0.733192
0.757987
0.766253
0.779574
0.765723
0.776662
0.799465
0.773393
0.792076
0.794414
0.816706
0.796924
0.817332
0.796857
0.810825
0.787231
0.805159
0.81037
0.809539
0.800939
0.792407
0.790658
0.782368
0.80955
0.83019
0.835176
0.821938
0.830112
0.835412
0.833581
0.835626
0.843503
0.852042
0.859388
0.856692
0.871969
0.867497
0.893344
0.880347
0.888835
0.882259
0.879007
0.874382
0.874455
0.876326
0.87954
0.886322
0.894347
0.891428
0.894728
0.898854
0.898904
0.898817
0.899579
0.901698
0.919445
0.917559
0.9248
0.926201
0.915344
0.907724
0.901654
0.886225
0.886219
0.876958
0.886793
0.868148
0.816918
0.783325
0.767742
0.719998
0.704416
0.69251
0.631259
0.599565
0.592469
0.585482
0.585075
0.563201
0.586698
0.569545
0.561546
0.497878
0.497524
0.410641
0.40395
0.313147
0.299843
0.276228
0.27002
0.25806
0.261236
0.268701
0.275581
0.27125
0.287214
0.281851
0.294254
0.304856
0.339918
0.358456
0.41632
0.441203
0.430909
0.468519
0.492832
0.466868
0.481352
0.455121
0.437768
0.403837
0.435479
0.395665
0.398583
0.400269
0.385857
0.40823
0.367366
0.428218
0.374011
0.419806
0.356275
0.41183
0.363515
0.408595
0.353857
0.411248
0.375744
0.404841
0.358176
0.397013
0.362687
0.408723
0.38876
0.39538
0.369264
0.388318
0.392174
0.389307
0.391147
0.419938
0.409232
0.431156
0.410841
0.436014
0.424396
0.437435
0.410922
0.456887
0.436356
0.45507
0.432876
0.439262
0.427963
0.442982
0.429317
0.494363
0.46824
0.494792
0.479092
0.518348
0.512793
0.582918
0.57144
0.598507
0.577345
0.622278
0.609608
0.627829
0.630426
0.63643
0.629505
0.63883
0.613887
0.637115
0.605782
0.627723
0.583576
0.610141
0.592737
0.612983
0.580198
0.583054
0.592753
0.585327
0.577508
0.571639
0.5487
0.540799
0.534794
0.500509
0.507227
0.473511
0.442996
0.436066
0.453109
0.464897
0.469011
0.505474
0.520201
0.558646
0.591086
0.667384
0.69759
0.814505
0.788768
0.868829
0.872403
0.926789
0.908629
0.954666
0.943795
0.964956
0.949014
0.981529
1.02005
1.02378
1.03901
1.03905
1.05779
1.05344
1.07596
1.07896
1.09178
1.09352
1.10564
1.1033
1.116
1.11636
1.13153
1.13166
1.13168
1.14815
1.14977
1.16121
1.16188
1.15449
1.15742
1.14525
1.14443
1.13496
1.15414
1.12546
1.14602
1.12777
1.15979
1.17148
1.18468
1.22716
1.26847
1.30286
1.33403
1.33307
1.32067
1.31208
1.27652
1.25616
1.1811
1.20152
1.17486
1.1919
1.23006
1.11736
0.866305
0.893106
0.831249
0.79455
0.812948
0.829024
0.754364
0.717453
0.508381
0.55747
0.270171
0.455243
0.578358
0.588581
0.673179
0.716467
0.714473
0.769464
0.769094
0.783326
0.767499
0.758346
0.767865
0.763881
0.773215
0.803318
0.792063
0.804451
0.798094
0.812368
0.78687
0.799466
0.793352
0.809402
0.80419
0.800911
0.79301
0.772949
0.772315
0.797951
0.809244
0.821369
0.822402
0.835993
0.82915
0.825132
0.826615
0.840953
0.853664
0.852234
0.852303
0.856031
0.872295
0.878611
0.881781
0.876002
0.87973
0.879759
0.887028
0.881217
0.878942
0.884561
0.893115
0.888529
0.896343
0.892115
0.897885
0.898056
0.895966
0.89371
0.914313
0.919538
0.921916
0.912128
0.923498
0.916869
0.910443
0.903687
0.888305
0.88399
0.885827
0.871912
0.870513
0.866584
0.799501
0.767371
0.738003
0.708977
0.690495
0.674351
0.611969
0.589272
0.592696
0.552117
0.584345
0.579438
0.597811
0.500182
0.529198
0.475832
0.479112
0.382237
0.348905
0.299325
0.31862
0.283898
0.277881
0.274049
0.282372
0.283383
0.281173
0.28202
0.292553
0.282327
0.326842
0.345735
0.352924
0.368465
0.369129
0.407586
0.470542
0.41407
0.45883
0.40746
0.436857
0.428498
0.40864
0.361494
0.349582
0.350142
0.389626
0.376783
0.378393
0.392798
0.384469
0.42841
0.367694
0.422413
0.376656
0.425772
0.355963
0.404394
0.378757
0.420455
0.368176
0.405666
0.373025
0.415763
0.371844
0.40815
0.364615
0.408772
0.388027
0.426887
0.398816
0.416435
0.40183
0.457048
0.418016
0.45106
0.43779
0.479925
0.41808
0.455674
0.437257
0.492607
0.465396
0.497359
0.492419
0.472851
0.471406
0.529054
0.516299
0.555321
0.543065
0.556151
0.545609
0.573477
0.564611
0.587451
0.578779
0.616028
0.593674
0.634979
0.627803
0.647844
0.630246
0.656199
0.635113
0.641916
0.63901
0.638284
0.629305
0.607937
0.60658
0.614747
0.594258
0.616789
0.598552
0.598493
0.613073
0.608349
0.625521
0.622652
0.61581
0.571693
0.55176
0.551135
0.540323
0.523942
0.517663
0.476275
0.558934
0.535458
0.580317
0.569301
0.607181
0.626649
0.721378
0.738813
0.867448
0.838834
0.900363
0.917286
0.948962
0.968993
0.994466
1.0033
1.03533
1.01608
1.05144
1.02912
1.07843
1.05546
1.09646
1.07542
1.10894
1.09083
1.13197
1.11852
1.13911
1.12746
1.15752
1.14401
1.15979
1.15979
1.17373
1.17813
1.19429
1.19872
1.21978
1.21574
1.2194
1.20933
1.21777
1.2081
1.21776
1.19099
1.21259
1.18816
1.21324
1.20275
1.20761
1.23918
1.25373
1.31588
1.30106
1.35405
1.32317
1.36383
1.33147
1.33444
1.27823
1.29348
1.26236
1.25402
1.23
1.1745
0.968738
0.928081
0.795855
0.795908
0.78403
0.853057
0.867952
0.851892
0.762668
0.688658
0.577711
0.286244
0.424324
0.546583
0.605682
0.612952
0.705883
0.738879
0.748064
0.777529
0.760094
0.773996
0.744366
0.770353
0.760809
0.768692
0.776911
0.77976
0.787699
0.804162
0.793323
0.788346
0.77941
0.794477
0.78829
0.802023
0.787407
0.759931
0.769934
0.762298
0.769268
0.785719
0.814582
0.818864
0.823344
0.816843
0.82289
0.827261
0.838269
0.840584
0.851602
0.851843
0.856797
0.87087
0.865032
0.870117
0.864327
0.874851
0.868419
0.879698
0.880407
0.877728
0.879913
0.883674
0.879822
0.887746
0.887774
0.892826
0.896078
0.892522
0.892955
0.900352
0.903992
0.90662
0.924541
0.923033
0.917943
0.9257
0.908148
0.900836
0.894213
0.883717
0.88238
0.872018
0.882078
0.794463
0.786896
0.755052
0.722497
0.698741
0.697611
0.621785
0.597806
0.59623
0.571556
0.573595
0.595161
0.567535
0.572512
0.524098
0.544342
0.490358
0.424334
0.369243
0.343143
0.315973
0.323509
0.297902
0.295405
0.292832
0.311349
0.295325
0.306596
0.309039
0.337086
0.342209
0.3575
0.373263
0.371318
0.413783
0.474255
0.463212
0.448051
0.476441
0.461032
0.471212
0.442555
0.415366
0.402883
0.40437
0.351107
0.365881
0.342973
0.374177
0.350247
0.357666
0.328847
0.366317
0.338023
0.389735
0.345271
0.360532
0.338648
0.374453
0.354945
0.369019
0.365639
0.388247
0.345502
0.376304
0.353454
0.357882
0.345698
0.364181
0.351552
0.362752
0.367185
0.36778
0.373471
0.398377
0.389461
0.398721
0.424372
0.430165
0.412378
0.434916
0.418902
0.435041
0.411963
0.422475
0.381659
0.416416
0.401109
0.417546
0.410499
0.43702
0.439086
0.424131
0.418468
0.459127
0.452319
0.473327
0.467116
0.477601
0.493293
0.497895
0.535396
0.505844
0.534424
0.51612
0.558708
0.518741
0.580307
0.532039
0.531747
0.561177
0.554351
0.566923
0.535386
0.535654
0.540979
0.549889
0.513975
0.532866
0.531362
0.511214
0.492274
0.491386
0.507514
0.48785
0.477625
0.470288
0.472957
0.457324
0.503862
0.530504
0.55109
0.573234
0.619628
0.672317
0.69493
0.790895
0.792731
0.842812
0.865082
0.891284
0.915341
0.940954
0.974241
0.968952
0.990352
0.975549
1.01368
1.00124
1.03349
1.02065
1.04512
1.04063
1.04758
1.03916
1.06736
1.04898
1.08635
1.06153
1.11622
1.0892
1.13577
1.08323
1.1364
1.11334
1.1435
1.123
1.15518
1.13135
1.14648
1.12352
1.15
1.11795
1.14918
1.11078
1.15454
1.11686
1.16578
1.16096
1.19236
1.19573
1.21456
1.25304
1.25105
1.29204
1.25592
1.29146
1.25747
1.2756
1.24999
1.26506
1.23441
1.25292
1.23538
1.15052
0.888
0.910388
0.824395
0.768602
0.826879
0.854278
0.810914
0.724066
0.723472
0.579072
0.287729
0.444577
0.510296
0.575904
0.625272
0.69283
0.728531
0.754097
0.773575
0.77961
0.748982
0.755727
0.746546
0.75732
0.74961
0.770927
0.76815
0.780403
0.782322
0.786068
0.773305
0.790525
0.783789
0.785979
0.78929
0.777024
0.766135
0.775093
0.756159
0.752485
0.761918
0.803768
0.800935
0.812258
0.826345
0.833211
0.826698
0.829704
0.83927
0.850878
0.849307
0.847946
0.858338
0.871316
0.863663
0.861192
0.868092
0.866209
0.873296
0.876155
0.878719
0.881714
0.882206
0.881148
0.884426
0.890328
0.892913
0.893471
0.886351
0.886098
0.898999
0.889749
0.917925
0.92479
0.922286
0.913818
0.924796
0.908696
0.903946
0.879953
0.891909
0.880798
0.879957
0.866044
0.803846
0.788873
0.768318
0.73119
0.681256
0.677561
0.623764
0.572412
0.5976
0.574769
0.590058
0.58541
0.601982
0.57389
0.545407
0.518508
0.522969
0.425029
0.414713
0.338135
0.357404
0.319785
0.350243
0.339315
0.342411
0.341268
0.357041
0.368051
0.360546
0.384079
0.393499
0.394788
0.390882
0.398964
0.396878
0.375198
0.393269
0.357449
0.34734
0.334475
0.308051
0.276208
0.257629
0.213583
0.199349
0.160598
0.160483
0.14793
0.175218
0.234963
0.304247
0.377194
0.363083
0.412202
0.365795
0.395168
0.331
0.3979
0.349839
0.400884
0.363827
0.394927
0.36924
0.408085
0.353732
0.398077
0.34894
0.391652
0.347415
0.37752
0.359049
0.399424
0.389915
0.402684
0.387073
0.406426
0.387813
0.42433
0.400696
0.439482
0.397732
0.441185
0.424292
0.469805
0.414949
0.446873
0.414621
0.445039
0.444553
0.477914
0.480137
0.473307
0.456473
0.514291
0.502386
0.525735
0.548061
0.590729
0.592883
0.618309
0.605321
0.625012
0.6147
0.622207
0.592756
0.619073
0.587083
0.617974
0.58804
0.613563
0.586176
0.634268
0.585291
0.611264
0.582072
0.593937
0.58783
0.59991
0.597068
0.582032
0.577968
0.551301
0.539907
0.534041
0.536306
0.517472
0.512182
0.527354
0.523114
0.496094
0.528681
0.516946
0.558135
0.616534
0.660545
0.688269
0.801282
0.808359
0.85999
0.888724
0.866311
0.921709
0.927862
0.958424
0.953953
0.969744
0.945446
0.999137
0.991696
1.02066
1.01287
1.04736
1.03616
1.06191
1.06636
1.06886
1.05531
1.09496
1.08339
1.10625
1.09444
1.11323
1.09964
1.13163
1.13803
1.12856
1.11658
1.14497
1.153
1.13851
1.11216
1.12672
1.11465
1.11788
1.09949
1.11615
1.10093
1.15557
1.14683
1.17203
1.18064
1.20872
1.24536
1.26964
1.29414
1.3132
1.25401
1.25831
1.2222
1.22725
1.19204
1.19269
1.1925
1.22107
1.02294
0.952235
0.809908
0.811037
0.752305
0.844997
0.831653
0.755734
0.670299
0.594459
0.627057
0.291898
0.43809
0.543123
0.55295
0.657227
0.725816
0.739433
0.745826
0.759963
0.769349
0.754387
0.742259
0.751089
0.749693
0.760245
0.750719
0.762815
0.762879
0.769757
0.763814
0.77569
0.768879
0.771397
0.767851
0.766315
0.771896
0.783791
0.737378
0.736643
0.744421
0.766008
0.80752
0.800273
0.804681
0.800183
0.79994
0.801314
0.825386
0.824284
0.837704
0.84156
0.844954
0.865132
0.862999
0.869344
0.863486
0.859352
0.854137
0.859945
0.873513
0.871921
0.872837
0.869225
0.869895
0.882439
0.886761
0.888409
0.890388
0.887655
0.894055
0.890993
0.893996
0.913618
0.921643
0.926065
0.929748
0.918795
0.927247
0.912352
0.891325
0.880205
0.884397
0.872923
0.876167
0.847097
0.786888
0.764995
0.730548
0.681608
0.692704
0.672519
0.630359
0.611514
0.593947
0.611643
0.626862
0.638037
0.629444
0.598792
0.568551
0.55967
0.493079
0.415907
0.406942
0.417325
0.418797
0.41758
0.414309
0.399241
0.409756
0.384369
0.419935
0.393285
0.416431
0.400411
0.428828
0.392711
0.431838
0.429074
0.398261
0.36635
0.38772
0.381189
0.396983
0.327718
0.320565
0.257725
0.27585
0.252641
0.249232
0.202864
0.201805
0.198961
0.193856
0.199242
0.208138
0.21933
0.21229
0.233511
0.206154
0.22597
0.219123
0.237048
0.236399
0.249184
0.237485
0.23024
0.256029
0.248697
0.271702
0.266089
0.317715
0.356191
0.329232
0.362972
0.367566
0.388681
0.404606
0.415415
0.382365
0.40478
0.387723
0.411362
0.384391
0.424362
0.401147
0.429436
0.402561
0.453089
0.408197
0.426794
0.433782
0.451185
0.458345
0.461721
0.450456
0.456784
0.456581
0.498734
0.513737
0.569831
0.539596
0.600606
0.596789
0.600064
0.595105
0.619137
0.585021
0.612912
0.591944
0.615994
0.59353
0.620804
0.578279
0.61926
0.580969
0.611736
0.574406
0.602481
0.587834
0.601243
0.585071
0.578622
0.573878
0.564491
0.539229
0.517337
0.536681
0.511145
0.512275
0.500272
0.512745
0.523071
0.553767
0.533981
0.53417
0.571645
0.613469
0.656139
0.680422
0.800986
0.800816
0.838038
0.839877
0.910321
0.869906
0.945503
0.929815
0.963392
0.952406
0.982881
0.971723
0.997186
0.98892
1.02943
1.0259
1.05513
1.04447
1.06951
1.05021
1.09019
1.07006
1.10016
1.09436
1.12309
1.0899
1.12024
1.11079
1.13259
1.11514
1.13798
1.15291
1.14429
1.11345
1.12874
1.10243
1.11733
1.08969
1.11985
1.09282
1.10559
1.13334
1.17336
1.15794
1.19112
1.18659
1.22058
1.24307
1.29306
1.26426
1.26255
1.23492
1.2311
1.206
1.22496
1.19662
1.2193
1.20785
1.17974