/*--------------------------------*- C++ -*----------------------------------*\
| =========                 |                                                 |
| \\      /  F ield         | OpenFOAM: The Open Source CFD Toolbox           |
|  \\    /   O peration     | Version:  2312                                  |
|   \\  /    A nd           | Website:  www.openfoam.com                      |
|    \\/     M anipulation  |                                                 |
\*---------------------------------------------------------------------------*/
FoamFile
{
    version     2.0;
    format      ascii;
    arch        "LSB;label=32;scalar=64";
    class       volScalarField;
    location    "6";
    object      kMean;
}
// * * * * * * * * * * * * * * * * * * * * * * * * * * * * * * * * * * * * * //

dimensions      [0 2 -2 0 0 0 0];

internalField   nonuniform List<scalar> 
154566
(
2.2943e-06
2.29247e-06
2.29064e-06
2.28882e-06
2.28699e-06
2.28517e-06
2.28335e-06
2.28154e-06
2.27975e-06
2.27798e-06
2.27621e-06
2.27446e-06
2.27272e-06
2.27099e-06
2.26927e-06
2.26755e-06
2.26585e-06
2.26415e-06
2.26247e-06
2.26079e-06
2.25913e-06
2.25748e-06
2.25585e-06
2.25422e-06
2.2526e-06
2.25099e-06
2.24939e-06
2.2478e-06
2.24622e-06
2.24465e-06
2.24309e-06
2.24154e-06
2.24001e-06
2.23848e-06
2.23696e-06
2.23545e-06
2.23395e-06
2.23246e-06
2.23098e-06
2.22951e-06
2.22805e-06
2.22659e-06
2.22515e-06
2.22371e-06
2.22229e-06
2.22087e-06
2.21946e-06
2.21805e-06
2.21666e-06
2.21527e-06
2.21389e-06
2.21252e-06
2.21115e-06
2.20979e-06
2.20844e-06
2.2071e-06
2.20577e-06
2.20444e-06
2.20313e-06
2.20182e-06
2.20051e-06
2.19922e-06
2.19793e-06
2.19666e-06
2.19539e-06
2.19413e-06
2.19287e-06
2.19163e-06
2.19039e-06
2.18916e-06
2.18795e-06
2.18673e-06
2.18553e-06
2.18434e-06
2.18315e-06
2.18198e-06
2.18081e-06
2.17966e-06
2.17851e-06
2.17737e-06
2.17624e-06
2.17513e-06
2.17402e-06
2.17292e-06
2.17183e-06
2.17076e-06
2.16969e-06
2.16863e-06
2.16759e-06
2.16656e-06
2.16553e-06
2.16453e-06
2.16353e-06
2.16254e-06
2.16157e-06
2.16062e-06
2.15967e-06
2.15874e-06
2.15783e-06
2.15693e-06
2.15604e-06
2.15517e-06
2.15432e-06
2.15348e-06
2.15266e-06
2.15186e-06
2.15108e-06
2.15032e-06
2.14957e-06
2.14885e-06
2.14815e-06
2.14747e-06
2.14681e-06
2.14618e-06
2.14557e-06
2.14498e-06
2.14443e-06
2.1439e-06
2.14339e-06
2.14292e-06
2.14248e-06
2.14208e-06
2.1417e-06
2.14136e-06
2.14106e-06
2.1408e-06
2.14058e-06
2.14039e-06
2.14026e-06
2.14016e-06
2.14012e-06
2.14013e-06
2.14019e-06
2.1403e-06
2.14047e-06
2.14071e-06
2.14101e-06
2.14138e-06
2.14182e-06
2.14233e-06
2.14293e-06
2.14361e-06
2.14437e-06
2.14524e-06
2.1462e-06
2.14727e-06
2.14846e-06
2.14976e-06
2.1512e-06
2.15277e-06
2.15448e-06
2.15635e-06
2.15839e-06
2.16059e-06
2.16299e-06
2.16558e-06
2.16839e-06
2.17142e-06
2.17469e-06
2.17823e-06
2.18204e-06
2.18615e-06
2.19059e-06
2.19537e-06
2.20052e-06
2.20607e-06
2.21205e-06
2.21849e-06
2.22544e-06
2.23292e-06
2.24099e-06
2.24967e-06
2.25867e-06
2.26776e-06
2.27683e-06
2.2858e-06
2.29464e-06
2.30338e-06
2.31199e-06
2.32049e-06
2.32888e-06
2.33716e-06
2.34533e-06
2.35341e-06
2.36138e-06
2.36925e-06
2.37703e-06
2.38472e-06
2.39231e-06
2.39981e-06
2.40723e-06
2.41456e-06
2.4218e-06
2.42897e-06
2.43605e-06
2.44305e-06
2.44997e-06
2.45682e-06
2.46359e-06
2.47029e-06
2.47692e-06
2.48348e-06
2.48997e-06
2.4964e-06
2.50277e-06
2.50909e-06
2.51537e-06
2.52161e-06
2.52781e-06
2.53398e-06
2.54012e-06
2.54625e-06
2.55237e-06
2.55849e-06
2.56462e-06
2.57077e-06
2.57695e-06
2.58317e-06
2.58946e-06
2.59584e-06
2.60232e-06
2.60893e-06
2.6157e-06
2.62266e-06
2.62984e-06
2.63725e-06
2.64494e-06
2.65293e-06
2.66122e-06
2.66982e-06
2.67875e-06
2.68801e-06
2.69759e-06
2.7075e-06
2.71775e-06
2.72835e-06
2.73933e-06
2.75071e-06
2.76253e-06
2.77482e-06
2.78762e-06
2.80098e-06
2.81499e-06
2.82978e-06
2.84547e-06
2.86211e-06
2.87978e-06
2.89862e-06
2.91884e-06
2.94066e-06
2.96421e-06
2.98956e-06
3.01699e-06
3.04701e-06
3.08013e-06
3.11669e-06
3.15705e-06
3.20176e-06
3.25166e-06
3.30774e-06
3.3712e-06
3.44349e-06
3.52647e-06
3.62257e-06
3.73502e-06
3.86821e-06
4.02959e-06
4.23692e-06
4.55383e-06
4.99335e-06
4.97471e-06
4.38631e-06
3.62884e-06
3.06689e-06
3.0649e-06
4.53084e-06
1.28576e-05
5.94423e-05
0.000478484
2.2943e-06
2.29246e-06
2.29062e-06
2.28879e-06
2.28697e-06
2.28516e-06
2.28336e-06
2.28158e-06
2.27982e-06
2.27807e-06
2.27632e-06
2.27459e-06
2.27286e-06
2.27114e-06
2.26943e-06
2.26772e-06
2.26603e-06
2.26435e-06
2.26268e-06
2.26102e-06
2.25938e-06
2.25774e-06
2.25611e-06
2.25449e-06
2.25288e-06
2.25128e-06
2.24969e-06
2.24811e-06
2.24654e-06
2.24498e-06
2.24343e-06
2.24189e-06
2.24037e-06
2.23885e-06
2.23733e-06
2.23583e-06
2.23434e-06
2.23286e-06
2.23138e-06
2.22992e-06
2.22846e-06
2.22702e-06
2.22558e-06
2.22415e-06
2.22273e-06
2.22131e-06
2.21991e-06
2.21851e-06
2.21712e-06
2.21573e-06
2.21436e-06
2.21299e-06
2.21163e-06
2.21027e-06
2.20893e-06
2.20759e-06
2.20626e-06
2.20494e-06
2.20362e-06
2.20232e-06
2.20102e-06
2.19973e-06
2.19844e-06
2.19717e-06
2.1959e-06
2.19464e-06
2.19339e-06
2.19215e-06
2.19091e-06
2.18969e-06
2.18847e-06
2.18726e-06
2.18606e-06
2.18487e-06
2.18368e-06
2.18251e-06
2.18134e-06
2.18019e-06
2.17904e-06
2.1779e-06
2.17677e-06
2.17565e-06
2.17455e-06
2.17345e-06
2.17236e-06
2.17128e-06
2.17021e-06
2.16916e-06
2.16811e-06
2.16708e-06
2.16605e-06
2.16504e-06
2.16405e-06
2.16306e-06
2.16209e-06
2.16113e-06
2.16018e-06
2.15925e-06
2.15833e-06
2.15742e-06
2.15654e-06
2.15566e-06
2.15481e-06
2.15397e-06
2.15314e-06
2.15234e-06
2.15155e-06
2.15079e-06
2.15004e-06
2.14931e-06
2.1486e-06
2.14792e-06
2.14726e-06
2.14662e-06
2.146e-06
2.14541e-06
2.14485e-06
2.14431e-06
2.14381e-06
2.14333e-06
2.14288e-06
2.14247e-06
2.14209e-06
2.14174e-06
2.14143e-06
2.14116e-06
2.14093e-06
2.14074e-06
2.14059e-06
2.14049e-06
2.14044e-06
2.14044e-06
2.14049e-06
2.14059e-06
2.14076e-06
2.14098e-06
2.14127e-06
2.14163e-06
2.14206e-06
2.14256e-06
2.14314e-06
2.14381e-06
2.14457e-06
2.14542e-06
2.14637e-06
2.14743e-06
2.1486e-06
2.14989e-06
2.15131e-06
2.15286e-06
2.15456e-06
2.15641e-06
2.15842e-06
2.16061e-06
2.16299e-06
2.16556e-06
2.16834e-06
2.17135e-06
2.1746e-06
2.17811e-06
2.1819e-06
2.18598e-06
2.19039e-06
2.19514e-06
2.20025e-06
2.20577e-06
2.21172e-06
2.21812e-06
2.22502e-06
2.23246e-06
2.24048e-06
2.24911e-06
2.25804e-06
2.26705e-06
2.27605e-06
2.28495e-06
2.29374e-06
2.30242e-06
2.31098e-06
2.31943e-06
2.32777e-06
2.33601e-06
2.34415e-06
2.35218e-06
2.36012e-06
2.36797e-06
2.37572e-06
2.38338e-06
2.39095e-06
2.39843e-06
2.40583e-06
2.41314e-06
2.42037e-06
2.42752e-06
2.43459e-06
2.44158e-06
2.4485e-06
2.45534e-06
2.4621e-06
2.4688e-06
2.47542e-06
2.48198e-06
2.48847e-06
2.4949e-06
2.50128e-06
2.5076e-06
2.51388e-06
2.52012e-06
2.52633e-06
2.53251e-06
2.53866e-06
2.5448e-06
2.55093e-06
2.55705e-06
2.56319e-06
2.56934e-06
2.57553e-06
2.58177e-06
2.58807e-06
2.59445e-06
2.60094e-06
2.60756e-06
2.61433e-06
2.62129e-06
2.62847e-06
2.63589e-06
2.64358e-06
2.65156e-06
2.65985e-06
2.66845e-06
2.67738e-06
2.68662e-06
2.6962e-06
2.70611e-06
2.71635e-06
2.72696e-06
2.73793e-06
2.74931e-06
2.76112e-06
2.77339e-06
2.78618e-06
2.79952e-06
2.81353e-06
2.82833e-06
2.84402e-06
2.86065e-06
2.87831e-06
2.89714e-06
2.91738e-06
2.93921e-06
2.96274e-06
2.98806e-06
3.01548e-06
3.04552e-06
3.07865e-06
3.11518e-06
3.15549e-06
3.20019e-06
3.25009e-06
3.30621e-06
3.36972e-06
3.4421e-06
3.52522e-06
3.62154e-06
3.73433e-06
3.86802e-06
4.03025e-06
4.23919e-06
4.55934e-06
4.99967e-06
4.9622e-06
4.34342e-06
3.56105e-06
2.99142e-06
3.01009e-06
4.10456e-06
9.78985e-06
4.29291e-05
0.000342857
2.2943e-06
2.29246e-06
2.29063e-06
2.28882e-06
2.28702e-06
2.28524e-06
2.28347e-06
2.28172e-06
2.27998e-06
2.27824e-06
2.2765e-06
2.27478e-06
2.27306e-06
2.27135e-06
2.26965e-06
2.26796e-06
2.26628e-06
2.26462e-06
2.26297e-06
2.26132e-06
2.25968e-06
2.25806e-06
2.25644e-06
2.25482e-06
2.25322e-06
2.25163e-06
2.25005e-06
2.24848e-06
2.24692e-06
2.24537e-06
2.24383e-06
2.2423e-06
2.24077e-06
2.23926e-06
2.23776e-06
2.23626e-06
2.23478e-06
2.2333e-06
2.23183e-06
2.23037e-06
2.22892e-06
2.22748e-06
2.22605e-06
2.22462e-06
2.2232e-06
2.2218e-06
2.22039e-06
2.219e-06
2.21761e-06
2.21623e-06
2.21486e-06
2.2135e-06
2.21214e-06
2.21079e-06
2.20945e-06
2.20811e-06
2.20679e-06
2.20547e-06
2.20415e-06
2.20285e-06
2.20155e-06
2.20026e-06
2.19898e-06
2.19771e-06
2.19644e-06
2.19519e-06
2.19394e-06
2.1927e-06
2.19146e-06
2.19024e-06
2.18902e-06
2.18781e-06
2.18661e-06
2.18542e-06
2.18423e-06
2.18306e-06
2.18189e-06
2.18074e-06
2.17959e-06
2.17845e-06
2.17732e-06
2.1762e-06
2.1751e-06
2.174e-06
2.17291e-06
2.17183e-06
2.17076e-06
2.1697e-06
2.16865e-06
2.16762e-06
2.16659e-06
2.16558e-06
2.16458e-06
2.16359e-06
2.16262e-06
2.16165e-06
2.1607e-06
2.15977e-06
2.15884e-06
2.15794e-06
2.15705e-06
2.15617e-06
2.15531e-06
2.15446e-06
2.15364e-06
2.15283e-06
2.15204e-06
2.15127e-06
2.15051e-06
2.14978e-06
2.14907e-06
2.14838e-06
2.14771e-06
2.14706e-06
2.14644e-06
2.14585e-06
2.14528e-06
2.14473e-06
2.14422e-06
2.14374e-06
2.14328e-06
2.14286e-06
2.14247e-06
2.14212e-06
2.1418e-06
2.14152e-06
2.14128e-06
2.14108e-06
2.14093e-06
2.14082e-06
2.14075e-06
2.14074e-06
2.14078e-06
2.14088e-06
2.14103e-06
2.14124e-06
2.14152e-06
2.14186e-06
2.14228e-06
2.14277e-06
2.14334e-06
2.14399e-06
2.14473e-06
2.14557e-06
2.1465e-06
2.14755e-06
2.1487e-06
2.14997e-06
2.15137e-06
2.15291e-06
2.15458e-06
2.15641e-06
2.15841e-06
2.16057e-06
2.16292e-06
2.16547e-06
2.16822e-06
2.1712e-06
2.17442e-06
2.1779e-06
2.18166e-06
2.18571e-06
2.19008e-06
2.19479e-06
2.19987e-06
2.20534e-06
2.21124e-06
2.2176e-06
2.22445e-06
2.23184e-06
2.2398e-06
2.24836e-06
2.25723e-06
2.26619e-06
2.27513e-06
2.28397e-06
2.2927e-06
2.30132e-06
2.30984e-06
2.31824e-06
2.32654e-06
2.33474e-06
2.34285e-06
2.35085e-06
2.35876e-06
2.36658e-06
2.3743e-06
2.38194e-06
2.38949e-06
2.39695e-06
2.40433e-06
2.41163e-06
2.41885e-06
2.42598e-06
2.43304e-06
2.44003e-06
2.44693e-06
2.45377e-06
2.46053e-06
2.46722e-06
2.47385e-06
2.4804e-06
2.48689e-06
2.49333e-06
2.49971e-06
2.50604e-06
2.51232e-06
2.51857e-06
2.52478e-06
2.53097e-06
2.53713e-06
2.54327e-06
2.54941e-06
2.55554e-06
2.56169e-06
2.56785e-06
2.57405e-06
2.58029e-06
2.5866e-06
2.59298e-06
2.59948e-06
2.6061e-06
2.61288e-06
2.61984e-06
2.62702e-06
2.63443e-06
2.64212e-06
2.65009e-06
2.65837e-06
2.66697e-06
2.67588e-06
2.68512e-06
2.69469e-06
2.70459e-06
2.71483e-06
2.72542e-06
2.73638e-06
2.74774e-06
2.75953e-06
2.77179e-06
2.78455e-06
2.79787e-06
2.81186e-06
2.82665e-06
2.84232e-06
2.85893e-06
2.87656e-06
2.89537e-06
2.91559e-06
2.93739e-06
2.96086e-06
2.9861e-06
3.01346e-06
3.04345e-06
3.0765e-06
3.11291e-06
3.15307e-06
3.19762e-06
3.24738e-06
3.30333e-06
3.36666e-06
3.43882e-06
3.52169e-06
3.61771e-06
3.73014e-06
3.86343e-06
4.02516e-06
4.23311e-06
4.55133e-06
4.99797e-06
4.96655e-06
4.32737e-06
3.51587e-06
2.92126e-06
2.97528e-06
4.26324e-06
9.89108e-06
4.23269e-05
0.000337423
2.2943e-06
2.29248e-06
2.29068e-06
2.2889e-06
2.28713e-06
2.28537e-06
2.28363e-06
2.28188e-06
2.28015e-06
2.27841e-06
2.27669e-06
2.27497e-06
2.27327e-06
2.27157e-06
2.26989e-06
2.26822e-06
2.26656e-06
2.26491e-06
2.26326e-06
2.26163e-06
2.26e-06
2.25838e-06
2.25677e-06
2.25517e-06
2.25357e-06
2.25199e-06
2.25042e-06
2.24886e-06
2.24731e-06
2.24577e-06
2.24423e-06
2.24271e-06
2.24119e-06
2.23968e-06
2.23819e-06
2.2367e-06
2.23522e-06
2.23375e-06
2.23229e-06
2.23083e-06
2.22939e-06
2.22795e-06
2.22652e-06
2.2251e-06
2.22369e-06
2.22228e-06
2.22089e-06
2.2195e-06
2.21811e-06
2.21674e-06
2.21537e-06
2.21401e-06
2.21266e-06
2.21131e-06
2.20997e-06
2.20864e-06
2.20732e-06
2.206e-06
2.20469e-06
2.20339e-06
2.20209e-06
2.20081e-06
2.19953e-06
2.19826e-06
2.19699e-06
2.19574e-06
2.19449e-06
2.19325e-06
2.19201e-06
2.19079e-06
2.18957e-06
2.18836e-06
2.18716e-06
2.18597e-06
2.18479e-06
2.18361e-06
2.18245e-06
2.18129e-06
2.18014e-06
2.17901e-06
2.17788e-06
2.17676e-06
2.17565e-06
2.17454e-06
2.17345e-06
2.17237e-06
2.1713e-06
2.17024e-06
2.1692e-06
2.16816e-06
2.16713e-06
2.16612e-06
2.16511e-06
2.16412e-06
2.16314e-06
2.16218e-06
2.16123e-06
2.16029e-06
2.15936e-06
2.15845e-06
2.15755e-06
2.15667e-06
2.15581e-06
2.15496e-06
2.15413e-06
2.15332e-06
2.15252e-06
2.15174e-06
2.15099e-06
2.15025e-06
2.14953e-06
2.14883e-06
2.14816e-06
2.14751e-06
2.14688e-06
2.14628e-06
2.1457e-06
2.14515e-06
2.14463e-06
2.14414e-06
2.14368e-06
2.14325e-06
2.14285e-06
2.14249e-06
2.14217e-06
2.14188e-06
2.14163e-06
2.14142e-06
2.14125e-06
2.14113e-06
2.14106e-06
2.14104e-06
2.14107e-06
2.14115e-06
2.14129e-06
2.1415e-06
2.14176e-06
2.14209e-06
2.1425e-06
2.14297e-06
2.14353e-06
2.14417e-06
2.14489e-06
2.14571e-06
2.14663e-06
2.14766e-06
2.14879e-06
2.15005e-06
2.15143e-06
2.15295e-06
2.1546e-06
2.15641e-06
2.15838e-06
2.16052e-06
2.16284e-06
2.16536e-06
2.16809e-06
2.17104e-06
2.17423e-06
2.17768e-06
2.1814e-06
2.18542e-06
2.18975e-06
2.19443e-06
2.19947e-06
2.2049e-06
2.21075e-06
2.21706e-06
2.22386e-06
2.23118e-06
2.23909e-06
2.24759e-06
2.2564e-06
2.2653e-06
2.27418e-06
2.28296e-06
2.29164e-06
2.30021e-06
2.30867e-06
2.31704e-06
2.3253e-06
2.33346e-06
2.34153e-06
2.3495e-06
2.35738e-06
2.36517e-06
2.37287e-06
2.38049e-06
2.38802e-06
2.39546e-06
2.40283e-06
2.41011e-06
2.41731e-06
2.42444e-06
2.43149e-06
2.43846e-06
2.44537e-06
2.45219e-06
2.45895e-06
2.46564e-06
2.47227e-06
2.47882e-06
2.48532e-06
2.49175e-06
2.49813e-06
2.50447e-06
2.51076e-06
2.51701e-06
2.52323e-06
2.52942e-06
2.53559e-06
2.54174e-06
2.54789e-06
2.55403e-06
2.56018e-06
2.56635e-06
2.57255e-06
2.5788e-06
2.58512e-06
2.59151e-06
2.59801e-06
2.60464e-06
2.61142e-06
2.61838e-06
2.62555e-06
2.63297e-06
2.64065e-06
2.64861e-06
2.65688e-06
2.66547e-06
2.67437e-06
2.6836e-06
2.69316e-06
2.70305e-06
2.71327e-06
2.72385e-06
2.73481e-06
2.74615e-06
2.75792e-06
2.77015e-06
2.78288e-06
2.79617e-06
2.81014e-06
2.82492e-06
2.84058e-06
2.85716e-06
2.87475e-06
2.89354e-06
2.91373e-06
2.93548e-06
2.95887e-06
2.98402e-06
3.0113e-06
3.04122e-06
3.07416e-06
3.11042e-06
3.15042e-06
3.19478e-06
3.24434e-06
3.30007e-06
3.36313e-06
3.43497e-06
3.51746e-06
3.61302e-06
3.72487e-06
3.85744e-06
4.01816e-06
4.22413e-06
4.5383e-06
4.98924e-06
4.97629e-06
4.33713e-06
3.4999e-06
2.86916e-06
2.9014e-06
4.37411e-06
1.0285e-05
4.21638e-05
0.000329343
2.29432e-06
2.29254e-06
2.29077e-06
2.28902e-06
2.28727e-06
2.28553e-06
2.28378e-06
2.28205e-06
2.28032e-06
2.27859e-06
2.27688e-06
2.27518e-06
2.2735e-06
2.27182e-06
2.27016e-06
2.2685e-06
2.26685e-06
2.26521e-06
2.26357e-06
2.26194e-06
2.26032e-06
2.25871e-06
2.25711e-06
2.25552e-06
2.25394e-06
2.25237e-06
2.2508e-06
2.24925e-06
2.24771e-06
2.24617e-06
2.24464e-06
2.24312e-06
2.24161e-06
2.24011e-06
2.23862e-06
2.23714e-06
2.23567e-06
2.2342e-06
2.23275e-06
2.2313e-06
2.22986e-06
2.22843e-06
2.227e-06
2.22558e-06
2.22418e-06
2.22277e-06
2.22138e-06
2.22e-06
2.21862e-06
2.21725e-06
2.21588e-06
2.21453e-06
2.21318e-06
2.21183e-06
2.2105e-06
2.20917e-06
2.20785e-06
2.20653e-06
2.20522e-06
2.20392e-06
2.20263e-06
2.20135e-06
2.20007e-06
2.1988e-06
2.19754e-06
2.19628e-06
2.19504e-06
2.1938e-06
2.19256e-06
2.19134e-06
2.19012e-06
2.18892e-06
2.18772e-06
2.18653e-06
2.18534e-06
2.18417e-06
2.183e-06
2.18184e-06
2.1807e-06
2.17956e-06
2.17843e-06
2.17731e-06
2.17619e-06
2.17509e-06
2.174e-06
2.17292e-06
2.17185e-06
2.17079e-06
2.16974e-06
2.1687e-06
2.16767e-06
2.16665e-06
2.16565e-06
2.16465e-06
2.16367e-06
2.1627e-06
2.16175e-06
2.1608e-06
2.15988e-06
2.15896e-06
2.15806e-06
2.15718e-06
2.15631e-06
2.15546e-06
2.15462e-06
2.1538e-06
2.153e-06
2.15222e-06
2.15146e-06
2.15071e-06
2.14999e-06
2.14929e-06
2.14861e-06
2.14795e-06
2.14732e-06
2.14671e-06
2.14613e-06
2.14557e-06
2.14504e-06
2.14454e-06
2.14408e-06
2.14364e-06
2.14323e-06
2.14286e-06
2.14253e-06
2.14223e-06
2.14197e-06
2.14175e-06
2.14158e-06
2.14145e-06
2.14137e-06
2.14134e-06
2.14135e-06
2.14143e-06
2.14156e-06
2.14175e-06
2.142e-06
2.14232e-06
2.14271e-06
2.14317e-06
2.14371e-06
2.14434e-06
2.14505e-06
2.14585e-06
2.14676e-06
2.14776e-06
2.14888e-06
2.15012e-06
2.15148e-06
2.15298e-06
2.15461e-06
2.1564e-06
2.15834e-06
2.16046e-06
2.16276e-06
2.16525e-06
2.16795e-06
2.17087e-06
2.17403e-06
2.17745e-06
2.18114e-06
2.18512e-06
2.18941e-06
2.19405e-06
2.19904e-06
2.20443e-06
2.21024e-06
2.21649e-06
2.22324e-06
2.23051e-06
2.23835e-06
2.2468e-06
2.25555e-06
2.26439e-06
2.27321e-06
2.28194e-06
2.29056e-06
2.29908e-06
2.3075e-06
2.31582e-06
2.32404e-06
2.33217e-06
2.34021e-06
2.34815e-06
2.356e-06
2.36377e-06
2.37144e-06
2.37904e-06
2.38655e-06
2.39397e-06
2.40132e-06
2.40859e-06
2.41578e-06
2.4229e-06
2.42994e-06
2.4369e-06
2.4438e-06
2.45062e-06
2.45738e-06
2.46406e-06
2.47069e-06
2.47724e-06
2.48374e-06
2.49018e-06
2.49656e-06
2.5029e-06
2.5092e-06
2.51545e-06
2.52168e-06
2.52788e-06
2.53405e-06
2.54021e-06
2.54636e-06
2.55251e-06
2.55867e-06
2.56485e-06
2.57106e-06
2.57732e-06
2.58364e-06
2.59004e-06
2.59654e-06
2.60317e-06
2.60995e-06
2.61691e-06
2.62408e-06
2.63149e-06
2.63917e-06
2.64712e-06
2.65539e-06
2.66396e-06
2.67285e-06
2.68207e-06
2.69161e-06
2.70149e-06
2.71171e-06
2.72227e-06
2.73321e-06
2.74453e-06
2.75628e-06
2.76848e-06
2.78118e-06
2.79445e-06
2.8084e-06
2.82317e-06
2.8388e-06
2.85534e-06
2.8729e-06
2.89166e-06
2.91182e-06
2.93351e-06
2.95679e-06
2.98185e-06
3.00905e-06
3.03888e-06
3.07169e-06
3.10778e-06
3.14758e-06
3.19173e-06
3.24106e-06
3.29652e-06
3.35925e-06
3.4307e-06
3.51271e-06
3.60768e-06
3.7188e-06
3.85043e-06
4.00984e-06
4.21326e-06
4.52222e-06
4.97682e-06
4.98852e-06
4.35857e-06
3.49753e-06
2.82865e-06
2.80265e-06
4.40564e-06
1.21335e-05
5.37083e-05
0.000425812
2.29434e-06
2.29259e-06
2.29084e-06
2.28909e-06
2.28734e-06
2.2856e-06
2.28386e-06
2.28214e-06
2.28042e-06
2.27872e-06
2.27703e-06
2.27536e-06
2.27369e-06
2.27203e-06
2.27037e-06
2.26872e-06
2.26708e-06
2.26544e-06
2.26381e-06
2.2622e-06
2.26059e-06
2.25899e-06
2.2574e-06
2.25582e-06
2.25425e-06
2.25269e-06
2.25113e-06
2.24959e-06
2.24805e-06
2.24652e-06
2.245e-06
2.24349e-06
2.24199e-06
2.24049e-06
2.23901e-06
2.23754e-06
2.23607e-06
2.23461e-06
2.23316e-06
2.23172e-06
2.23028e-06
2.22885e-06
2.22743e-06
2.22602e-06
2.22462e-06
2.22322e-06
2.22183e-06
2.22045e-06
2.21908e-06
2.21771e-06
2.21635e-06
2.215e-06
2.21365e-06
2.21231e-06
2.21098e-06
2.20965e-06
2.20833e-06
2.20702e-06
2.20572e-06
2.20442e-06
2.20313e-06
2.20185e-06
2.20057e-06
2.19931e-06
2.19804e-06
2.19679e-06
2.19555e-06
2.19431e-06
2.19308e-06
2.19185e-06
2.19064e-06
2.18943e-06
2.18823e-06
2.18704e-06
2.18586e-06
2.18469e-06
2.18352e-06
2.18236e-06
2.18121e-06
2.18007e-06
2.17894e-06
2.17782e-06
2.17671e-06
2.17561e-06
2.17452e-06
2.17343e-06
2.17236e-06
2.1713e-06
2.17025e-06
2.16921e-06
2.16818e-06
2.16716e-06
2.16615e-06
2.16515e-06
2.16417e-06
2.1632e-06
2.16224e-06
2.1613e-06
2.16036e-06
2.15945e-06
2.15855e-06
2.15766e-06
2.15679e-06
2.15593e-06
2.15509e-06
2.15427e-06
2.15346e-06
2.15268e-06
2.15191e-06
2.15116e-06
2.15043e-06
2.14973e-06
2.14904e-06
2.14838e-06
2.14774e-06
2.14713e-06
2.14654e-06
2.14598e-06
2.14544e-06
2.14494e-06
2.14446e-06
2.14401e-06
2.1436e-06
2.14322e-06
2.14288e-06
2.14258e-06
2.14231e-06
2.14208e-06
2.1419e-06
2.14176e-06
2.14167e-06
2.14163e-06
2.14164e-06
2.1417e-06
2.14182e-06
2.142e-06
2.14224e-06
2.14255e-06
2.14293e-06
2.14338e-06
2.1439e-06
2.14452e-06
2.14521e-06
2.14601e-06
2.1469e-06
2.14789e-06
2.14899e-06
2.15021e-06
2.15156e-06
2.15303e-06
2.15465e-06
2.15641e-06
2.15834e-06
2.16043e-06
2.16271e-06
2.16518e-06
2.16785e-06
2.17075e-06
2.17389e-06
2.17727e-06
2.18093e-06
2.18488e-06
2.18915e-06
2.19375e-06
2.19871e-06
2.20405e-06
2.20982e-06
2.21603e-06
2.22273e-06
2.22995e-06
2.23774e-06
2.24613e-06
2.25483e-06
2.26361e-06
2.27236e-06
2.28103e-06
2.2896e-06
2.29808e-06
2.30645e-06
2.31473e-06
2.32291e-06
2.331e-06
2.339e-06
2.34691e-06
2.35473e-06
2.36247e-06
2.37012e-06
2.37769e-06
2.38518e-06
2.39259e-06
2.39992e-06
2.40718e-06
2.41435e-06
2.42146e-06
2.42849e-06
2.43544e-06
2.44233e-06
2.44915e-06
2.4559e-06
2.46258e-06
2.4692e-06
2.47576e-06
2.48225e-06
2.48869e-06
2.49508e-06
2.50142e-06
2.50772e-06
2.51398e-06
2.52022e-06
2.52642e-06
2.5326e-06
2.53877e-06
2.54493e-06
2.55108e-06
2.55725e-06
2.56344e-06
2.56965e-06
2.57592e-06
2.58224e-06
2.58865e-06
2.59516e-06
2.60179e-06
2.60857e-06
2.61554e-06
2.62271e-06
2.63012e-06
2.63779e-06
2.64574e-06
2.65399e-06
2.66256e-06
2.67145e-06
2.68066e-06
2.69019e-06
2.70006e-06
2.71027e-06
2.72082e-06
2.73175e-06
2.74306e-06
2.75479e-06
2.76697e-06
2.77964e-06
2.79289e-06
2.80685e-06
2.82161e-06
2.83723e-06
2.85375e-06
2.8713e-06
2.89005e-06
2.91018e-06
2.93182e-06
2.95504e-06
2.98002e-06
3.00719e-06
3.03697e-06
3.06971e-06
3.10568e-06
3.14536e-06
3.18941e-06
3.23861e-06
3.29393e-06
3.3565e-06
3.42777e-06
3.50958e-06
3.60431e-06
3.71514e-06
3.84646e-06
4.00546e-06
4.20808e-06
4.51539e-06
4.9707e-06
4.98944e-06
4.35804e-06
3.47423e-06
2.78097e-06
2.70996e-06
3.96594e-06
1.07805e-05
4.87601e-05
0.000390596
2.29434e-06
2.29258e-06
2.29083e-06
2.28908e-06
2.28734e-06
2.28561e-06
2.2839e-06
2.2822e-06
2.28051e-06
2.27883e-06
2.27716e-06
2.27549e-06
2.27383e-06
2.27218e-06
2.27053e-06
2.26889e-06
2.26726e-06
2.26563e-06
2.26402e-06
2.26241e-06
2.26082e-06
2.25923e-06
2.25766e-06
2.25609e-06
2.25452e-06
2.25297e-06
2.25142e-06
2.24988e-06
2.24835e-06
2.24683e-06
2.24532e-06
2.24382e-06
2.24232e-06
2.24084e-06
2.23936e-06
2.23789e-06
2.23643e-06
2.23498e-06
2.23353e-06
2.23209e-06
2.23066e-06
2.22924e-06
2.22783e-06
2.22642e-06
2.22502e-06
2.22363e-06
2.22225e-06
2.22087e-06
2.2195e-06
2.21814e-06
2.21678e-06
2.21544e-06
2.21409e-06
2.21276e-06
2.21143e-06
2.2101e-06
2.20879e-06
2.20748e-06
2.20618e-06
2.20489e-06
2.2036e-06
2.20232e-06
2.20104e-06
2.19978e-06
2.19852e-06
2.19727e-06
2.19602e-06
2.19479e-06
2.19356e-06
2.19234e-06
2.19112e-06
2.18992e-06
2.18872e-06
2.18753e-06
2.18635e-06
2.18518e-06
2.18401e-06
2.18285e-06
2.1817e-06
2.18057e-06
2.17943e-06
2.17831e-06
2.1772e-06
2.1761e-06
2.17501e-06
2.17392e-06
2.17285e-06
2.17179e-06
2.17073e-06
2.16969e-06
2.16866e-06
2.16764e-06
2.16663e-06
2.16563e-06
2.16465e-06
2.16367e-06
2.16271e-06
2.16177e-06
2.16083e-06
2.15991e-06
2.15901e-06
2.15812e-06
2.15724e-06
2.15638e-06
2.15554e-06
2.15472e-06
2.15391e-06
2.15312e-06
2.15234e-06
2.15159e-06
2.15086e-06
2.15015e-06
2.14946e-06
2.14879e-06
2.14815e-06
2.14753e-06
2.14694e-06
2.14637e-06
2.14583e-06
2.14532e-06
2.14483e-06
2.14438e-06
2.14396e-06
2.14358e-06
2.14323e-06
2.14291e-06
2.14264e-06
2.14241e-06
2.14222e-06
2.14207e-06
2.14197e-06
2.14192e-06
2.14192e-06
2.14197e-06
2.14208e-06
2.14225e-06
2.14248e-06
2.14278e-06
2.14315e-06
2.14359e-06
2.1441e-06
2.1447e-06
2.14539e-06
2.14617e-06
2.14705e-06
2.14802e-06
2.14911e-06
2.15032e-06
2.15165e-06
2.15311e-06
2.15471e-06
2.15646e-06
2.15836e-06
2.16044e-06
2.16269e-06
2.16514e-06
2.16779e-06
2.17067e-06
2.17378e-06
2.17714e-06
2.18078e-06
2.1847e-06
2.18894e-06
2.1935e-06
2.19843e-06
2.20375e-06
2.20948e-06
2.21565e-06
2.22231e-06
2.22949e-06
2.23723e-06
2.24557e-06
2.2542e-06
2.26292e-06
2.27162e-06
2.28023e-06
2.28875e-06
2.29717e-06
2.30549e-06
2.31373e-06
2.32187e-06
2.32993e-06
2.33789e-06
2.34577e-06
2.35356e-06
2.36127e-06
2.3689e-06
2.37644e-06
2.38391e-06
2.3913e-06
2.39861e-06
2.40585e-06
2.41301e-06
2.4201e-06
2.42712e-06
2.43407e-06
2.44094e-06
2.44776e-06
2.4545e-06
2.46118e-06
2.46779e-06
2.47435e-06
2.48084e-06
2.48728e-06
2.49367e-06
2.50002e-06
2.50632e-06
2.51259e-06
2.51882e-06
2.52503e-06
2.53122e-06
2.53739e-06
2.54356e-06
2.54972e-06
2.5559e-06
2.56209e-06
2.56832e-06
2.57459e-06
2.58092e-06
2.58733e-06
2.59384e-06
2.60048e-06
2.60727e-06
2.61424e-06
2.62141e-06
2.62882e-06
2.63649e-06
2.64444e-06
2.65269e-06
2.66125e-06
2.67013e-06
2.67933e-06
2.68886e-06
2.69873e-06
2.70893e-06
2.71948e-06
2.73039e-06
2.74169e-06
2.75341e-06
2.76557e-06
2.77823e-06
2.79148e-06
2.80544e-06
2.82022e-06
2.83583e-06
2.85234e-06
2.86988e-06
2.88863e-06
2.90875e-06
2.93036e-06
2.95352e-06
2.97847e-06
3.00563e-06
3.03541e-06
3.0681e-06
3.10401e-06
3.14363e-06
3.18763e-06
3.2368e-06
3.29208e-06
3.35462e-06
3.42587e-06
3.50767e-06
3.60242e-06
3.71333e-06
3.84482e-06
4.00415e-06
4.20734e-06
4.5159e-06
4.97423e-06
4.98432e-06
4.32581e-06
3.41439e-06
2.70668e-06
2.66567e-06
3.79503e-06
9.33813e-06
4.16151e-05
0.000333783
2.29434e-06
2.29258e-06
2.29084e-06
2.28911e-06
2.2874e-06
2.2857e-06
2.28401e-06
2.28233e-06
2.28066e-06
2.27899e-06
2.27733e-06
2.27567e-06
2.27402e-06
2.27237e-06
2.27073e-06
2.2691e-06
2.26748e-06
2.26587e-06
2.26427e-06
2.26268e-06
2.2611e-06
2.25952e-06
2.25795e-06
2.25639e-06
2.25483e-06
2.25328e-06
2.25174e-06
2.25021e-06
2.24869e-06
2.24718e-06
2.24568e-06
2.24418e-06
2.24269e-06
2.24122e-06
2.23974e-06
2.23828e-06
2.23682e-06
2.23538e-06
2.23394e-06
2.2325e-06
2.23108e-06
2.22966e-06
2.22825e-06
2.22685e-06
2.22546e-06
2.22407e-06
2.22269e-06
2.22132e-06
2.21995e-06
2.21859e-06
2.21724e-06
2.2159e-06
2.21456e-06
2.21322e-06
2.2119e-06
2.21058e-06
2.20927e-06
2.20796e-06
2.20666e-06
2.20537e-06
2.20409e-06
2.20281e-06
2.20154e-06
2.20027e-06
2.19901e-06
2.19776e-06
2.19652e-06
2.19529e-06
2.19406e-06
2.19284e-06
2.19163e-06
2.19042e-06
2.18923e-06
2.18804e-06
2.18685e-06
2.18568e-06
2.18452e-06
2.18336e-06
2.18221e-06
2.18107e-06
2.17994e-06
2.17882e-06
2.17771e-06
2.1766e-06
2.17551e-06
2.17443e-06
2.17335e-06
2.17229e-06
2.17123e-06
2.17019e-06
2.16916e-06
2.16813e-06
2.16712e-06
2.16612e-06
2.16514e-06
2.16416e-06
2.1632e-06
2.16225e-06
2.16131e-06
2.16039e-06
2.15948e-06
2.15859e-06
2.15771e-06
2.15685e-06
2.156e-06
2.15517e-06
2.15436e-06
2.15356e-06
2.15279e-06
2.15203e-06
2.15129e-06
2.15058e-06
2.14988e-06
2.14921e-06
2.14856e-06
2.14794e-06
2.14734e-06
2.14676e-06
2.14621e-06
2.1457e-06
2.14521e-06
2.14475e-06
2.14432e-06
2.14393e-06
2.14357e-06
2.14325e-06
2.14297e-06
2.14273e-06
2.14253e-06
2.14237e-06
2.14226e-06
2.1422e-06
2.14219e-06
2.14224e-06
2.14234e-06
2.1425e-06
2.14272e-06
2.143e-06
2.14336e-06
2.14378e-06
2.14429e-06
2.14488e-06
2.14555e-06
2.14631e-06
2.14717e-06
2.14814e-06
2.14921e-06
2.1504e-06
2.15171e-06
2.15315e-06
2.15473e-06
2.15646e-06
2.15835e-06
2.1604e-06
2.16263e-06
2.16506e-06
2.16769e-06
2.17054e-06
2.17362e-06
2.17696e-06
2.18056e-06
2.18445e-06
2.18866e-06
2.19319e-06
2.19808e-06
2.20336e-06
2.20904e-06
2.21518e-06
2.22179e-06
2.22891e-06
2.2366e-06
2.24489e-06
2.25347e-06
2.26213e-06
2.27077e-06
2.27933e-06
2.2878e-06
2.29618e-06
2.30446e-06
2.31265e-06
2.32076e-06
2.32878e-06
2.33671e-06
2.34456e-06
2.35232e-06
2.36e-06
2.36761e-06
2.37513e-06
2.38258e-06
2.38995e-06
2.39724e-06
2.40446e-06
2.41161e-06
2.41869e-06
2.4257e-06
2.43264e-06
2.43951e-06
2.44631e-06
2.45305e-06
2.45973e-06
2.46634e-06
2.47289e-06
2.47939e-06
2.48583e-06
2.49222e-06
2.49857e-06
2.50488e-06
2.51115e-06
2.51739e-06
2.5236e-06
2.5298e-06
2.53598e-06
2.54215e-06
2.54832e-06
2.5545e-06
2.5607e-06
2.56693e-06
2.57321e-06
2.57955e-06
2.58597e-06
2.59248e-06
2.59913e-06
2.60592e-06
2.61288e-06
2.62006e-06
2.62746e-06
2.63513e-06
2.64307e-06
2.65131e-06
2.65987e-06
2.66874e-06
2.67794e-06
2.68746e-06
2.69731e-06
2.70751e-06
2.71805e-06
2.72894e-06
2.74023e-06
2.75192e-06
2.76406e-06
2.7767e-06
2.78994e-06
2.80391e-06
2.81868e-06
2.83428e-06
2.85076e-06
2.86828e-06
2.88701e-06
2.90709e-06
2.92864e-06
2.95172e-06
2.97661e-06
3.00373e-06
3.03344e-06
3.06603e-06
3.10182e-06
3.14132e-06
3.18518e-06
3.2342e-06
3.2893e-06
3.35164e-06
3.42265e-06
3.50416e-06
3.59858e-06
3.70907e-06
3.84009e-06
3.99876e-06
4.20067e-06
4.50652e-06
4.96913e-06
4.99021e-06
4.32399e-06
3.3861e-06
2.64776e-06
2.61955e-06
3.90374e-06
8.91975e-06
3.65705e-05
0.000288558
2.29434e-06
2.29261e-06
2.2909e-06
2.2892e-06
2.28752e-06
2.28584e-06
2.28416e-06
2.28249e-06
2.28083e-06
2.27916e-06
2.2775e-06
2.27585e-06
2.27421e-06
2.27258e-06
2.27095e-06
2.26934e-06
2.26774e-06
2.26614e-06
2.26455e-06
2.26297e-06
2.26139e-06
2.25982e-06
2.25825e-06
2.2567e-06
2.25515e-06
2.25361e-06
2.25208e-06
2.25056e-06
2.24905e-06
2.24754e-06
2.24605e-06
2.24456e-06
2.24308e-06
2.2416e-06
2.24014e-06
2.23868e-06
2.23723e-06
2.23578e-06
2.23435e-06
2.23292e-06
2.2315e-06
2.23009e-06
2.22869e-06
2.22729e-06
2.2259e-06
2.22452e-06
2.22314e-06
2.22177e-06
2.22041e-06
2.21905e-06
2.21771e-06
2.21636e-06
2.21503e-06
2.2137e-06
2.21238e-06
2.21106e-06
2.20975e-06
2.20845e-06
2.20715e-06
2.20586e-06
2.20458e-06
2.2033e-06
2.20203e-06
2.20077e-06
2.19951e-06
2.19826e-06
2.19702e-06
2.19579e-06
2.19456e-06
2.19334e-06
2.19213e-06
2.19093e-06
2.18973e-06
2.18854e-06
2.18736e-06
2.18619e-06
2.18502e-06
2.18387e-06
2.18272e-06
2.18158e-06
2.18045e-06
2.17933e-06
2.17821e-06
2.17711e-06
2.17601e-06
2.17493e-06
2.17385e-06
2.17279e-06
2.17173e-06
2.17069e-06
2.16965e-06
2.16863e-06
2.16762e-06
2.16661e-06
2.16562e-06
2.16465e-06
2.16368e-06
2.16273e-06
2.16179e-06
2.16086e-06
2.15995e-06
2.15906e-06
2.15817e-06
2.15731e-06
2.15646e-06
2.15562e-06
2.15481e-06
2.15401e-06
2.15323e-06
2.15246e-06
2.15172e-06
2.151e-06
2.1503e-06
2.14963e-06
2.14897e-06
2.14834e-06
2.14773e-06
2.14715e-06
2.1466e-06
2.14608e-06
2.14558e-06
2.14511e-06
2.14468e-06
2.14428e-06
2.14391e-06
2.14359e-06
2.1433e-06
2.14305e-06
2.14284e-06
2.14267e-06
2.14256e-06
2.14249e-06
2.14247e-06
2.1425e-06
2.14259e-06
2.14273e-06
2.14294e-06
2.14322e-06
2.14356e-06
2.14397e-06
2.14447e-06
2.14504e-06
2.1457e-06
2.14645e-06
2.1473e-06
2.14824e-06
2.1493e-06
2.15047e-06
2.15177e-06
2.15319e-06
2.15475e-06
2.15646e-06
2.15832e-06
2.16035e-06
2.16256e-06
2.16496e-06
2.16757e-06
2.17039e-06
2.17345e-06
2.17675e-06
2.18033e-06
2.18419e-06
2.18835e-06
2.19285e-06
2.19771e-06
2.20294e-06
2.20858e-06
2.21467e-06
2.22123e-06
2.22831e-06
2.23593e-06
2.24417e-06
2.2527e-06
2.26131e-06
2.2699e-06
2.27841e-06
2.28683e-06
2.29515e-06
2.3034e-06
2.31155e-06
2.31962e-06
2.3276e-06
2.3355e-06
2.34332e-06
2.35106e-06
2.35872e-06
2.3663e-06
2.3738e-06
2.38123e-06
2.38858e-06
2.39586e-06
2.40307e-06
2.4102e-06
2.41727e-06
2.42426e-06
2.43119e-06
2.43806e-06
2.44486e-06
2.45159e-06
2.45827e-06
2.46488e-06
2.47143e-06
2.47793e-06
2.48437e-06
2.49077e-06
2.49712e-06
2.50343e-06
2.5097e-06
2.51595e-06
2.52217e-06
2.52837e-06
2.53455e-06
2.54073e-06