/*--------------------------------*- C++ -*----------------------------------*\
| =========                 |                                                 |
| \\      /  F ield         | OpenFOAM: The Open Source CFD Toolbox           |
|  \\    /   O peration     | Version:  2312                                  |
|   \\  /    A nd           | Website:  www.openfoam.com                      |
|    \\/     M anipulation  |                                                 |
\*---------------------------------------------------------------------------*/
FoamFile
{
    version     2.0;
    format      ascii;
    arch        "LSB;label=32;scalar=64";
    class       volScalarField;
    location    "6";
    object      nutMean;
}
// * * * * * * * * * * * * * * * * * * * * * * * * * * * * * * * * * * * * * //

dimensions      [0 2 -1 0 0 0 0];

internalField   nonuniform List<scalar> 
154566
(
1.24467e-07
1.24454e-07
1.24416e-07
1.24352e-07
1.24273e-07
1.24186e-07
1.24093e-07
1.23996e-07
1.23899e-07
1.23801e-07
1.23705e-07
1.2361e-07
1.23516e-07
1.23422e-07
1.23328e-07
1.23235e-07
1.23142e-07
1.2305e-07
1.22958e-07
1.22867e-07
1.22777e-07
1.22687e-07
1.22598e-07
1.2251e-07
1.22422e-07
1.22334e-07
1.22247e-07
1.22161e-07
1.22075e-07
1.21989e-07
1.21905e-07
1.21821e-07
1.21737e-07
1.21654e-07
1.21571e-07
1.21489e-07
1.21408e-07
1.21327e-07
1.21246e-07
1.21166e-07
1.21087e-07
1.21008e-07
1.20929e-07
1.20851e-07
1.20773e-07
1.20696e-07
1.20619e-07
1.20543e-07
1.20467e-07
1.20391e-07
1.20316e-07
1.20242e-07
1.20167e-07
1.20093e-07
1.2002e-07
1.19947e-07
1.19874e-07
1.19802e-07
1.1973e-07
1.19659e-07
1.19588e-07
1.19518e-07
1.19447e-07
1.19378e-07
1.19309e-07
1.1924e-07
1.19172e-07
1.19104e-07
1.19036e-07
1.18969e-07
1.18903e-07
1.18837e-07
1.18771e-07
1.18706e-07
1.18641e-07
1.18577e-07
1.18514e-07
1.1845e-07
1.18388e-07
1.18326e-07
1.18264e-07
1.18203e-07
1.18142e-07
1.18082e-07
1.18023e-07
1.17964e-07
1.17905e-07
1.17847e-07
1.1779e-07
1.17733e-07
1.17677e-07
1.17622e-07
1.17567e-07
1.17513e-07
1.1746e-07
1.17407e-07
1.17355e-07
1.17303e-07
1.17253e-07
1.17203e-07
1.17154e-07
1.17106e-07
1.17059e-07
1.17012e-07
1.16967e-07
1.16922e-07
1.16878e-07
1.16836e-07
1.16794e-07
1.16753e-07
1.16714e-07
1.16675e-07
1.16638e-07
1.16602e-07
1.16567e-07
1.16534e-07
1.16501e-07
1.16471e-07
1.16441e-07
1.16413e-07
1.16387e-07
1.16362e-07
1.16339e-07
1.16318e-07
1.16299e-07
1.16281e-07
1.16266e-07
1.16252e-07
1.16241e-07
1.16232e-07
1.16225e-07
1.16221e-07
1.1622e-07
1.16221e-07
1.16225e-07
1.16232e-07
1.16242e-07
1.16255e-07
1.16272e-07
1.16293e-07
1.16317e-07
1.16346e-07
1.16379e-07
1.16416e-07
1.16458e-07
1.16505e-07
1.16558e-07
1.16616e-07
1.16681e-07
1.16752e-07
1.1683e-07
1.16915e-07
1.17008e-07
1.17109e-07
1.17219e-07
1.17338e-07
1.17467e-07
1.17607e-07
1.17757e-07
1.1792e-07
1.18096e-07
1.18286e-07
1.18492e-07
1.18713e-07
1.18952e-07
1.1921e-07
1.1949e-07
1.19793e-07
1.20122e-07
1.20477e-07
1.20863e-07
1.21282e-07
1.21721e-07
1.22168e-07
1.22619e-07
1.23067e-07
1.2351e-07
1.23948e-07
1.24384e-07
1.2482e-07
1.25259e-07
1.257e-07
1.2614e-07
1.26575e-07
1.27005e-07
1.27428e-07
1.27847e-07
1.2826e-07
1.28668e-07
1.29072e-07
1.29471e-07
1.29865e-07
1.30254e-07
1.30639e-07
1.3102e-07
1.31397e-07
1.31769e-07
1.32137e-07
1.32501e-07
1.32861e-07
1.32462e-07
1.25362e-07
1.09045e-07
9.47809e-08
8.23344e-08
7.14883e-08
6.20456e-08
5.38312e-08
4.66924e-08
4.04968e-08
3.51292e-08
3.04884e-08
2.64851e-08
2.30397e-08
2.00817e-08
1.75482e-08
1.53838e-08
1.35391e-08
1.19703e-08
1.06386e-08
9.50932e-09
8.55169e-09
7.73832e-09
7.0451e-09
6.45103e-09
5.93824e-09
5.49201e-09
5.10077e-09
4.75589e-09
4.45119e-09
4.18209e-09
3.94466e-09
3.73491e-09
3.54858e-09
3.38134e-09
3.22907e-09
3.08836e-09
2.95668e-09
2.83241e-09
2.7146e-09
2.60273e-09
2.49651e-09
2.39573e-09
2.30027e-09
2.20998e-09
2.12469e-09
2.0442e-09
1.9684e-09
1.8972e-09
1.83053e-09
1.76823e-09
1.71013e-09
1.65617e-09
1.60641e-09
1.56087e-09
1.5195e-09
1.48223e-09
1.44907e-09
1.42017e-09
1.39567e-09
1.37578e-09
1.36073e-09
1.3508e-09
1.34629e-09
1.34754e-09
1.35477e-09
1.3687e-09
1.39428e-09
1.46465e-09
1.66976e-09
1.96535e-09
7.73327e-10
2.24811e-10
8.51407e-11
4.42837e-11
3.205e-11
3.15914e-11
3.43327e-11
3.69988e-11
1.24467e-07
1.24454e-07
1.24416e-07
1.24352e-07
1.24273e-07
1.24186e-07
1.24094e-07
1.23998e-07
1.23902e-07
1.23806e-07
1.23711e-07
1.23617e-07
1.23523e-07
1.2343e-07
1.23336e-07
1.23244e-07
1.23152e-07
1.2306e-07
1.2297e-07
1.2288e-07
1.2279e-07
1.22701e-07
1.22613e-07
1.22525e-07
1.22437e-07
1.2235e-07
1.22264e-07
1.22178e-07
1.22092e-07
1.22008e-07
1.21923e-07
1.2184e-07
1.21757e-07
1.21674e-07
1.21592e-07
1.2151e-07
1.21429e-07
1.21348e-07
1.21268e-07
1.21188e-07
1.21109e-07
1.2103e-07
1.20952e-07
1.20874e-07
1.20797e-07
1.2072e-07
1.20644e-07
1.20568e-07
1.20492e-07
1.20417e-07
1.20342e-07
1.20267e-07
1.20193e-07
1.20119e-07
1.20046e-07
1.19973e-07
1.19901e-07
1.19829e-07
1.19757e-07
1.19686e-07
1.19615e-07
1.19545e-07
1.19475e-07
1.19406e-07
1.19337e-07
1.19268e-07
1.192e-07
1.19132e-07
1.19065e-07
1.18998e-07
1.18931e-07
1.18865e-07
1.188e-07
1.18735e-07
1.1867e-07
1.18606e-07
1.18542e-07
1.18479e-07
1.18417e-07
1.18354e-07
1.18293e-07
1.18232e-07
1.18171e-07
1.18111e-07
1.18051e-07
1.17992e-07
1.17934e-07
1.17876e-07
1.17818e-07
1.17762e-07
1.17706e-07
1.1765e-07
1.17595e-07
1.17541e-07
1.17487e-07
1.17435e-07
1.17382e-07
1.17331e-07
1.1728e-07
1.1723e-07
1.17181e-07
1.17133e-07
1.17085e-07
1.17039e-07
1.16993e-07
1.16948e-07
1.16904e-07
1.16861e-07
1.16819e-07
1.16778e-07
1.16739e-07
1.167e-07
1.16662e-07
1.16626e-07
1.16591e-07
1.16557e-07
1.16524e-07
1.16493e-07
1.16463e-07
1.16435e-07
1.16409e-07
1.16383e-07
1.1636e-07
1.16338e-07
1.16319e-07
1.16301e-07
1.16285e-07
1.16271e-07
1.16259e-07
1.1625e-07
1.16243e-07
1.16238e-07
1.16236e-07
1.16237e-07
1.1624e-07
1.16246e-07
1.16256e-07
1.16269e-07
1.16285e-07
1.16305e-07
1.16329e-07
1.16357e-07
1.16389e-07
1.16425e-07
1.16467e-07
1.16513e-07
1.16565e-07
1.16623e-07
1.16686e-07
1.16757e-07
1.16834e-07
1.16918e-07
1.1701e-07
1.1711e-07
1.17218e-07
1.17336e-07
1.17464e-07
1.17602e-07
1.17752e-07
1.17913e-07
1.18087e-07
1.18276e-07
1.18479e-07
1.18699e-07
1.18936e-07
1.19192e-07
1.1947e-07
1.19771e-07
1.20096e-07
1.2045e-07
1.20833e-07
1.21249e-07
1.21684e-07
1.22127e-07
1.22574e-07
1.23019e-07
1.2346e-07
1.23895e-07
1.24328e-07
1.24762e-07
1.25199e-07
1.25639e-07
1.26076e-07
1.2651e-07
1.26937e-07
1.27359e-07
1.27776e-07
1.28188e-07
1.28595e-07
1.28997e-07
1.29395e-07
1.29788e-07
1.30177e-07
1.30562e-07
1.30942e-07
1.31318e-07
1.31689e-07
1.32057e-07
1.32421e-07
1.32781e-07
1.32301e-07
1.24652e-07
1.08421e-07
9.42331e-08
8.18531e-08
7.10653e-08
6.16738e-08
5.35046e-08
4.64058e-08
4.02455e-08
3.49088e-08
3.02951e-08
2.63154e-08
2.28905e-08
1.99503e-08
1.74322e-08
1.52811e-08
1.34479e-08
1.18889e-08
1.05657e-08
9.44361e-09
8.49214e-09
7.68407e-09
6.9954e-09
6.40528e-09
5.89597e-09
5.45282e-09
5.06433e-09
4.72189e-09
4.41934e-09
4.15211e-09
3.91626e-09
3.70786e-09
3.52271e-09
3.35651e-09
3.20521e-09
3.06539e-09
2.93457e-09
2.81113e-09
2.69413e-09
2.58304e-09
2.47757e-09
2.37753e-09
2.2828e-09
2.19321e-09
2.10858e-09
2.02874e-09
1.95356e-09
1.88297e-09
1.81687e-09
1.7551e-09
1.6975e-09
1.64402e-09
1.59473e-09
1.54963e-09
1.50865e-09
1.47174e-09
1.43894e-09
1.41039e-09
1.38629e-09
1.36689e-09
1.35255e-09
1.34382e-09
1.3415e-09
1.34678e-09
1.36146e-09
1.38891e-09
1.43858e-09
1.55363e-09
1.85655e-09
2.20565e-09
7.38762e-10
2.11731e-10
8.05063e-11
4.2593e-11
2.85832e-11
2.39565e-11
2.47707e-11
2.65115e-11
1.24467e-07
1.24455e-07
1.24418e-07
1.24355e-07
1.24276e-07
1.24191e-07
1.241e-07
1.24006e-07
1.23911e-07
1.23816e-07
1.23721e-07
1.23627e-07
1.23534e-07
1.23441e-07
1.23349e-07
1.23257e-07
1.23166e-07
1.23075e-07
1.22985e-07
1.22896e-07
1.22807e-07
1.22718e-07
1.2263e-07
1.22543e-07
1.22456e-07
1.22369e-07
1.22283e-07
1.22198e-07
1.22113e-07
1.22029e-07
1.21945e-07
1.21862e-07
1.21779e-07
1.21697e-07
1.21615e-07
1.21533e-07
1.21453e-07
1.21372e-07
1.21292e-07
1.21213e-07
1.21134e-07
1.21056e-07
1.20978e-07
1.209e-07
1.20823e-07
1.20747e-07
1.2067e-07
1.20594e-07
1.20519e-07
1.20444e-07
1.20369e-07
1.20295e-07
1.20221e-07
1.20148e-07
1.20075e-07
1.20002e-07
1.1993e-07
1.19858e-07
1.19786e-07
1.19715e-07
1.19645e-07
1.19574e-07
1.19505e-07
1.19435e-07
1.19366e-07
1.19298e-07
1.1923e-07
1.19162e-07
1.19095e-07
1.19028e-07
1.18961e-07
1.18895e-07
1.1883e-07
1.18765e-07
1.187e-07
1.18636e-07
1.18573e-07
1.18509e-07
1.18447e-07
1.18384e-07
1.18323e-07
1.18262e-07
1.18201e-07
1.18141e-07
1.18081e-07
1.18022e-07
1.17963e-07
1.17905e-07
1.17848e-07
1.17791e-07
1.17735e-07
1.17679e-07
1.17624e-07
1.1757e-07
1.17516e-07
1.17463e-07
1.17411e-07
1.17359e-07
1.17308e-07
1.17258e-07
1.17209e-07
1.1716e-07
1.17113e-07
1.17066e-07
1.1702e-07
1.16975e-07
1.16931e-07
1.16887e-07
1.16845e-07
1.16804e-07
1.16764e-07
1.16725e-07
1.16687e-07
1.1665e-07
1.16615e-07
1.16581e-07
1.16548e-07
1.16516e-07
1.16486e-07
1.16457e-07
1.1643e-07
1.16405e-07
1.16381e-07
1.16359e-07
1.16339e-07
1.1632e-07
1.16304e-07
1.1629e-07
1.16277e-07
1.16267e-07
1.1626e-07
1.16254e-07
1.16252e-07
1.16252e-07
1.16255e-07
1.16261e-07
1.1627e-07
1.16282e-07
1.16297e-07
1.16317e-07
1.1634e-07
1.16367e-07
1.16398e-07
1.16434e-07
1.16474e-07
1.1652e-07
1.16571e-07
1.16627e-07
1.1669e-07
1.16759e-07
1.16835e-07
1.16918e-07
1.17009e-07
1.17107e-07
1.17215e-07
1.17331e-07
1.17457e-07
1.17594e-07
1.17742e-07
1.17902e-07
1.18074e-07
1.18261e-07
1.18462e-07
1.1868e-07
1.18915e-07
1.19168e-07
1.19443e-07
1.19741e-07
1.20064e-07
1.20414e-07
1.20794e-07
1.21207e-07
1.21639e-07
1.22079e-07
1.22523e-07
1.22965e-07
1.23403e-07
1.23836e-07
1.24266e-07
1.24698e-07
1.25133e-07
1.2557e-07
1.26006e-07
1.26438e-07
1.26864e-07
1.27284e-07
1.277e-07
1.2811e-07
1.28516e-07
1.28918e-07
1.29315e-07
1.29707e-07
1.30095e-07
1.30479e-07
1.30859e-07
1.31234e-07
1.31605e-07
1.31973e-07
1.32336e-07
1.32696e-07
1.32206e-07
1.24249e-07
1.08063e-07
9.39149e-08
8.15701e-08
7.08134e-08
6.14497e-08
5.33055e-08
4.62291e-08
4.00888e-08
3.47698e-08
3.01717e-08
2.62057e-08
2.27929e-08
1.98631e-08
1.73543e-08
1.52112e-08
1.33849e-08
1.1832e-08
1.0514e-08
9.39651e-09
8.44903e-09
7.64445e-09
6.95887e-09
6.37152e-09
5.86472e-09
5.42389e-09
5.03753e-09
4.69702e-09
4.39618e-09
4.13041e-09
3.8958e-09
3.68843e-09
3.50416e-09
3.33871e-09
3.18808e-09
3.0489e-09
2.91868e-09
2.79582e-09
2.67938e-09
2.56884e-09
2.4639e-09
2.36439e-09
2.27018e-09
2.1811e-09
2.09695e-09
2.01756e-09
1.94283e-09
1.87268e-09
1.80699e-09
1.7456e-09
1.68834e-09
1.6352e-09
1.58624e-09
1.54144e-09
1.50072e-09
1.46404e-09
1.43145e-09
1.40308e-09
1.37912e-09
1.35979e-09
1.34541e-09
1.33645e-09
1.33357e-09
1.33778e-09
1.35057e-09
1.37486e-09
1.41927e-09
1.52462e-09
1.81161e-09
2.25341e-09
7.47645e-10
2.13287e-10
7.96025e-11
4.2198e-11
2.94203e-11
2.40477e-11
2.43937e-11
2.60913e-11
1.24467e-07
1.24455e-07
1.2442e-07
1.24359e-07
1.24282e-07
1.24198e-07
1.24108e-07
1.24015e-07
1.2392e-07
1.23825e-07
1.23731e-07
1.23638e-07
1.23545e-07
1.23453e-07
1.23362e-07
1.23271e-07
1.23181e-07
1.23091e-07
1.23002e-07
1.22913e-07
1.22824e-07
1.22736e-07
1.22648e-07
1.22561e-07
1.22475e-07
1.22389e-07
1.22303e-07
1.22219e-07
1.22134e-07
1.2205e-07
1.21967e-07
1.21884e-07
1.21802e-07
1.2172e-07
1.21638e-07
1.21557e-07
1.21477e-07
1.21397e-07
1.21317e-07
1.21238e-07
1.2116e-07
1.21081e-07
1.21004e-07
1.20926e-07
1.2085e-07
1.20773e-07
1.20697e-07
1.20621e-07
1.20546e-07
1.20471e-07
1.20397e-07
1.20323e-07
1.20249e-07
1.20176e-07
1.20103e-07
1.20031e-07
1.19959e-07
1.19887e-07
1.19815e-07
1.19745e-07
1.19674e-07
1.19604e-07
1.19534e-07
1.19465e-07
1.19396e-07
1.19328e-07
1.1926e-07
1.19192e-07
1.19125e-07
1.19058e-07
1.18992e-07
1.18926e-07
1.1886e-07
1.18795e-07
1.18731e-07
1.18666e-07
1.18603e-07
1.1854e-07
1.18477e-07
1.18415e-07
1.18353e-07
1.18292e-07
1.18231e-07
1.18171e-07
1.18111e-07
1.18052e-07
1.17993e-07
1.17935e-07
1.17878e-07
1.17821e-07
1.17764e-07
1.17709e-07
1.17653e-07
1.17599e-07
1.17545e-07
1.17492e-07
1.17439e-07
1.17388e-07
1.17337e-07
1.17286e-07
1.17237e-07
1.17188e-07
1.1714e-07
1.17093e-07
1.17047e-07
1.17001e-07
1.16957e-07
1.16914e-07
1.16871e-07
1.1683e-07
1.16789e-07
1.1675e-07
1.16712e-07
1.16675e-07
1.16639e-07
1.16604e-07
1.16571e-07
1.16539e-07
1.16509e-07
1.1648e-07
1.16452e-07
1.16426e-07
1.16402e-07
1.16379e-07
1.16359e-07
1.1634e-07
1.16323e-07
1.16308e-07
1.16295e-07
1.16285e-07
1.16277e-07
1.16271e-07
1.16268e-07
1.16267e-07
1.16269e-07
1.16275e-07
1.16283e-07
1.16294e-07
1.16309e-07
1.16328e-07
1.1635e-07
1.16376e-07
1.16407e-07
1.16442e-07
1.16481e-07
1.16526e-07
1.16576e-07
1.16631e-07
1.16693e-07
1.16761e-07
1.16836e-07
1.16918e-07
1.17007e-07
1.17104e-07
1.1721e-07
1.17325e-07
1.1745e-07
1.17585e-07
1.17731e-07
1.17889e-07
1.1806e-07
1.18245e-07
1.18444e-07
1.1866e-07
1.18892e-07
1.19143e-07
1.19416e-07
1.19711e-07
1.20031e-07
1.20378e-07
1.20754e-07
1.21164e-07
1.21592e-07
1.2203e-07
1.22471e-07
1.2291e-07
1.23346e-07
1.23776e-07
1.24204e-07
1.24633e-07
1.25066e-07
1.25502e-07
1.25935e-07
1.26365e-07
1.2679e-07
1.27209e-07
1.27623e-07
1.28033e-07
1.28437e-07
1.28838e-07
1.29234e-07
1.29625e-07
1.30013e-07
1.30396e-07
1.30775e-07
1.3115e-07
1.31521e-07
1.31888e-07
1.32251e-07
1.32611e-07
1.32134e-07
1.24001e-07
1.07841e-07
9.37148e-08
8.13899e-08
7.0651e-08
6.13033e-08
5.31737e-08
4.61108e-08
3.99826e-08
3.46745e-08
3.00861e-08
2.61286e-08
2.27234e-08
1.98004e-08
1.72974e-08
1.51595e-08
1.33378e-08
1.17889e-08
1.04744e-08
9.35994e-09
8.41518e-09
7.61303e-09
6.92965e-09
6.34433e-09
5.83942e-09
5.40037e-09
5.01569e-09
4.67673e-09
4.37728e-09
4.11271e-09
3.8791e-09
3.67256e-09
3.48898e-09
3.32413e-09
3.17404e-09
3.03536e-09
2.90562e-09
2.78323e-09
2.66725e-09
2.55715e-09
2.45265e-09
2.35359e-09
2.25981e-09
2.17115e-09
2.08739e-09
2.00839e-09
1.93404e-09
1.86425e-09
1.7989e-09
1.73781e-09
1.68084e-09
1.62799e-09
1.57931e-09
1.53475e-09
1.49424e-09
1.45775e-09
1.42535e-09
1.39717e-09
1.37339e-09
1.35428e-09
1.34017e-09
1.33161e-09
1.32932e-09
1.33442e-09
1.34848e-09
1.37444e-09
1.42035e-09
1.52513e-09
1.80773e-09
2.29805e-09
7.74826e-10
2.19694e-10
8.03394e-11
4.20049e-11
3.05735e-11
2.51709e-11
2.42087e-11
2.54665e-11
1.24467e-07
1.24456e-07
1.24424e-07
1.24365e-07
1.2429e-07
1.24206e-07
1.24117e-07
1.24024e-07
1.23929e-07
1.23835e-07
1.23742e-07
1.2365e-07
1.23558e-07
1.23467e-07
1.23376e-07
1.23286e-07
1.23197e-07
1.23107e-07
1.23018e-07
1.2293e-07
1.22842e-07
1.22754e-07
1.22667e-07
1.22581e-07
1.22495e-07
1.22409e-07
1.22324e-07
1.2224e-07
1.22156e-07
1.22072e-07
1.21989e-07
1.21907e-07
1.21825e-07
1.21743e-07
1.21662e-07
1.21581e-07
1.21501e-07
1.21422e-07
1.21342e-07
1.21264e-07
1.21185e-07
1.21107e-07
1.2103e-07
1.20953e-07
1.20876e-07
1.208e-07
1.20724e-07
1.20649e-07
1.20574e-07
1.20499e-07
1.20425e-07
1.20351e-07
1.20278e-07
1.20204e-07
1.20132e-07
1.20059e-07
1.19987e-07
1.19916e-07
1.19845e-07
1.19774e-07
1.19703e-07
1.19633e-07
1.19564e-07
1.19495e-07
1.19426e-07
1.19358e-07
1.1929e-07
1.19222e-07
1.19155e-07
1.19088e-07
1.19022e-07
1.18956e-07
1.1889e-07
1.18825e-07
1.18761e-07
1.18697e-07
1.18633e-07
1.1857e-07
1.18507e-07
1.18445e-07
1.18383e-07
1.18322e-07
1.18261e-07
1.18201e-07
1.18141e-07
1.18082e-07
1.18023e-07
1.17965e-07
1.17907e-07
1.1785e-07
1.17794e-07
1.17738e-07
1.17683e-07
1.17628e-07
1.17574e-07
1.17521e-07
1.17468e-07
1.17416e-07
1.17365e-07
1.17314e-07
1.17264e-07
1.17215e-07
1.17167e-07
1.1712e-07
1.17074e-07
1.17028e-07
1.16983e-07
1.1694e-07
1.16897e-07
1.16855e-07
1.16814e-07
1.16775e-07
1.16736e-07
1.16699e-07
1.16663e-07
1.16628e-07
1.16594e-07
1.16562e-07
1.16531e-07
1.16502e-07
1.16474e-07
1.16447e-07
1.16423e-07
1.164e-07
1.16379e-07
1.16359e-07
1.16342e-07
1.16326e-07
1.16313e-07
1.16302e-07
1.16293e-07
1.16287e-07
1.16283e-07
1.16282e-07
1.16284e-07
1.16288e-07
1.16296e-07
1.16307e-07
1.16321e-07
1.16338e-07
1.1636e-07
1.16385e-07
1.16415e-07
1.16449e-07
1.16488e-07
1.16531e-07
1.1658e-07
1.16635e-07
1.16696e-07
1.16763e-07
1.16837e-07
1.16917e-07
1.17005e-07
1.17101e-07
1.17206e-07
1.17319e-07
1.17442e-07
1.17576e-07
1.1772e-07
1.17877e-07
1.18046e-07
1.18229e-07
1.18426e-07
1.18639e-07
1.1887e-07
1.19118e-07
1.19388e-07
1.1968e-07
1.19997e-07
1.20341e-07
1.20714e-07
1.2112e-07
1.21546e-07
1.2198e-07
1.22419e-07
1.22855e-07
1.23288e-07
1.23716e-07
1.24142e-07
1.24568e-07
1.24999e-07
1.25432e-07
1.25864e-07
1.26292e-07
1.26715e-07
1.27133e-07
1.27546e-07
1.27954e-07
1.28358e-07
1.28758e-07
1.29153e-07
1.29544e-07
1.2993e-07
1.30313e-07
1.30692e-07
1.31066e-07
1.31437e-07
1.31804e-07
1.32167e-07
1.32526e-07
1.32099e-07
1.23877e-07
1.07726e-07
9.36095e-08
8.12927e-08
7.05611e-08
6.12204e-08
5.30975e-08
4.6041e-08
3.99189e-08
3.46164e-08
3.00331e-08
2.60802e-08
2.26791e-08
1.97598e-08
1.72601e-08
1.51252e-08
1.3306e-08
1.17595e-08
1.0447e-08
9.33452e-09
8.39147e-09
7.59089e-09
6.909e-09
6.3251e-09
5.82158e-09
5.3839e-09
5.00055e-09
4.66286e-09
4.36454e-09
4.10094e-09
3.86812e-09
3.66222e-09
3.47915e-09
3.31473e-09
3.16502e-09
3.02669e-09
2.8973e-09
2.77523e-09
2.65957e-09
2.54979e-09
2.44561e-09
2.34686e-09
2.2534e-09
2.16503e-09
2.08156e-09
2.00283e-09
1.92875e-09
1.85923e-09
1.79412e-09
1.73324e-09
1.67647e-09
1.62382e-09
1.57533e-09
1.53093e-09
1.49056e-09
1.45418e-09
1.42186e-09
1.39373e-09
1.36993e-09
1.35065e-09
1.33616e-09
1.32677e-09
1.32293e-09
1.32517e-09
1.33418e-09
1.35141e-09
1.3821e-09
1.45793e-09
1.67367e-09
2.06422e-09
8.13707e-10
2.2948e-10
8.20276e-11
4.13411e-11
3.1089e-11
2.97346e-11
3.09008e-11
3.29381e-11
1.24467e-07
1.24457e-07
1.24426e-07
1.24369e-07
1.24294e-07
1.2421e-07
1.24121e-07
1.24029e-07
1.23935e-07
1.23842e-07
1.2375e-07
1.23659e-07
1.23568e-07
1.23478e-07
1.23388e-07
1.23298e-07
1.23209e-07
1.2312e-07
1.23032e-07
1.22944e-07
1.22856e-07
1.22769e-07
1.22683e-07
1.22597e-07
1.22512e-07
1.22427e-07
1.22342e-07
1.22258e-07
1.22175e-07
1.22091e-07
1.22009e-07
1.21927e-07
1.21845e-07
1.21764e-07
1.21683e-07
1.21603e-07
1.21523e-07
1.21444e-07
1.21365e-07
1.21286e-07
1.21208e-07
1.21131e-07
1.21053e-07
1.20977e-07
1.209e-07
1.20824e-07
1.20749e-07
1.20674e-07
1.20599e-07
1.20524e-07
1.2045e-07
1.20377e-07
1.20304e-07
1.20231e-07
1.20158e-07
1.20086e-07
1.20014e-07
1.19943e-07
1.19872e-07
1.19801e-07
1.19731e-07
1.19661e-07
1.19591e-07
1.19522e-07
1.19454e-07
1.19385e-07
1.19317e-07
1.1925e-07
1.19183e-07
1.19116e-07
1.1905e-07
1.18984e-07
1.18918e-07
1.18853e-07
1.18789e-07
1.18725e-07
1.18661e-07
1.18598e-07
1.18535e-07
1.18473e-07
1.18411e-07
1.1835e-07
1.18289e-07
1.18229e-07
1.18169e-07
1.1811e-07
1.18051e-07
1.17993e-07
1.17935e-07
1.17878e-07
1.17821e-07
1.17765e-07
1.1771e-07
1.17655e-07
1.17601e-07
1.17548e-07
1.17495e-07
1.17443e-07
1.17391e-07
1.17341e-07
1.17291e-07
1.17242e-07
1.17193e-07
1.17146e-07
1.17099e-07
1.17053e-07
1.17008e-07
1.16964e-07
1.16921e-07
1.16879e-07
1.16838e-07
1.16799e-07
1.1676e-07
1.16722e-07
1.16686e-07
1.1665e-07
1.16616e-07
1.16584e-07
1.16553e-07
1.16523e-07
1.16495e-07
1.16468e-07
1.16443e-07
1.16419e-07
1.16398e-07
1.16378e-07
1.1636e-07
1.16344e-07
1.1633e-07
1.16319e-07
1.1631e-07
1.16303e-07
1.16299e-07
1.16297e-07
1.16298e-07
1.16302e-07
1.16309e-07
1.16319e-07
1.16332e-07
1.1635e-07
1.1637e-07
1.16395e-07
1.16424e-07
1.16457e-07
1.16495e-07
1.16538e-07
1.16586e-07
1.1664e-07
1.167e-07
1.16766e-07
1.16838e-07
1.16918e-07
1.17005e-07
1.171e-07
1.17203e-07
1.17315e-07
1.17437e-07
1.17569e-07
1.17712e-07
1.17867e-07
1.18035e-07
1.18216e-07
1.18412e-07
1.18623e-07
1.18851e-07
1.19098e-07
1.19365e-07
1.19655e-07
1.19969e-07
1.2031e-07
1.2068e-07
1.21084e-07
1.21506e-07
1.21937e-07
1.22372e-07
1.22807e-07
1.23237e-07
1.23662e-07
1.24085e-07
1.2451e-07
1.24938e-07
1.25369e-07
1.25799e-07
1.26226e-07
1.26647e-07
1.27064e-07
1.27475e-07
1.27882e-07
1.28285e-07
1.28683e-07
1.29078e-07
1.29468e-07
1.29854e-07
1.30236e-07
1.30613e-07
1.30988e-07
1.31358e-07
1.31724e-07
1.32087e-07
1.32446e-07
1.32044e-07
1.23669e-07
1.07539e-07
9.34406e-08
8.11402e-08
7.04233e-08
6.10957e-08
5.29851e-08
4.59398e-08
3.9828e-08
3.45349e-08
2.996e-08
2.60147e-08
2.26202e-08
1.97067e-08
1.72123e-08
1.50819e-08
1.32668e-08
1.17237e-08
1.04144e-08
9.30455e-09
8.36387e-09
7.5654e-09
6.88539e-09
6.30321e-09
5.80129e-09
5.36512e-09
4.98318e-09
4.64679e-09
4.34963e-09
4.08702e-09
3.85502e-09
3.64977e-09
3.46723e-09
3.30326e-09
3.15394e-09
3.01598e-09
2.88693e-09
2.76521e-09
2.64988e-09
2.54043e-09
2.43658e-09
2.33817e-09
2.24505e-09
2.157e-09
2.07383e-09
1.99541e-09
1.92163e-09
1.85239e-09
1.78753e-09
1.72688e-09
1.67035e-09
1.61793e-09
1.56966e-09
1.52546e-09
1.48526e-09
1.44904e-09
1.4169e-09
1.38894e-09
1.36533e-09
1.3463e-09
1.33215e-09
1.32327e-09
1.32023e-09
1.3237e-09
1.33458e-09
1.35451e-09
1.38875e-09
1.4682e-09
1.67967e-09
1.94971e-09
8.23447e-10
2.28395e-10
8.08733e-11
4.01552e-11
2.81978e-11
2.64885e-11
2.81515e-11
3.02029e-11
1.24467e-07
1.24457e-07
1.24426e-07
1.24369e-07
1.24295e-07
1.24211e-07
1.24123e-07
1.24032e-07
1.2394e-07
1.23848e-07
1.23757e-07
1.23667e-07
1.23576e-07
1.23486e-07
1.23397e-07
1.23308e-07
1.23219e-07
1.23131e-07
1.23043e-07
1.22956e-07
1.22869e-07
1.22783e-07
1.22697e-07
1.22611e-07
1.22527e-07
1.22442e-07
1.22358e-07
1.22274e-07
1.22191e-07
1.22108e-07
1.22026e-07
1.21944e-07
1.21863e-07
1.21783e-07
1.21702e-07
1.21622e-07
1.21543e-07
1.21464e-07
1.21385e-07
1.21307e-07
1.21229e-07
1.21152e-07
1.21075e-07
1.20998e-07
1.20922e-07
1.20847e-07
1.20771e-07
1.20697e-07
1.20622e-07
1.20548e-07
1.20474e-07
1.20401e-07
1.20328e-07
1.20255e-07
1.20182e-07
1.2011e-07
1.20039e-07
1.19968e-07
1.19897e-07
1.19826e-07
1.19756e-07
1.19686e-07
1.19617e-07
1.19548e-07
1.19479e-07
1.19411e-07
1.19343e-07
1.19276e-07
1.19209e-07
1.19142e-07
1.19076e-07
1.1901e-07
1.18945e-07
1.1888e-07
1.18816e-07
1.18751e-07
1.18688e-07
1.18625e-07
1.18562e-07
1.185e-07
1.18438e-07
1.18377e-07
1.18316e-07
1.18255e-07
1.18196e-07
1.18136e-07
1.18077e-07
1.18019e-07
1.17961e-07
1.17904e-07
1.17848e-07
1.17792e-07
1.17736e-07
1.17681e-07
1.17627e-07
1.17574e-07
1.17521e-07
1.17468e-07
1.17417e-07
1.17366e-07
1.17316e-07
1.17267e-07
1.17218e-07
1.1717e-07
1.17124e-07
1.17078e-07
1.17032e-07
1.16988e-07
1.16945e-07
1.16903e-07
1.16862e-07
1.16821e-07
1.16782e-07
1.16745e-07
1.16708e-07
1.16672e-07
1.16638e-07
1.16605e-07
1.16574e-07
1.16544e-07
1.16515e-07
1.16488e-07
1.16462e-07
1.16439e-07
1.16416e-07
1.16396e-07
1.16378e-07
1.16362e-07
1.16348e-07
1.16336e-07
1.16326e-07
1.16319e-07
1.16314e-07
1.16312e-07
1.16312e-07
1.16315e-07
1.16322e-07
1.16331e-07
1.16344e-07
1.16361e-07
1.16381e-07
1.16405e-07
1.16434e-07
1.16466e-07
1.16503e-07
1.16545e-07
1.16593e-07
1.16646e-07
1.16705e-07
1.1677e-07
1.16841e-07
1.1692e-07
1.17006e-07
1.171e-07
1.17202e-07
1.17313e-07
1.17434e-07
1.17565e-07
1.17706e-07
1.1786e-07
1.18026e-07
1.18205e-07
1.18399e-07
1.18609e-07
1.18835e-07
1.1908e-07
1.19345e-07
1.19633e-07
1.19944e-07
1.20283e-07
1.2065e-07
1.21051e-07
1.2147e-07
1.21898e-07
1.2233e-07
1.22762e-07
1.23189e-07
1.23612e-07
1.24033e-07
1.24455e-07
1.24882e-07
1.25311e-07
1.2574e-07
1.26164e-07
1.26584e-07
1.26999e-07
1.27409e-07
1.27815e-07
1.28217e-07
1.28614e-07
1.29007e-07
1.29396e-07
1.29781e-07
1.30163e-07
1.3054e-07
1.30913e-07
1.31283e-07
1.31649e-07
1.32012e-07
1.32371e-07
1.31926e-07
1.23146e-07
1.07078e-07
9.30354e-08
8.07835e-08
7.01092e-08
6.08191e-08
5.27416e-08
4.57258e-08
3.964e-08
3.43698e-08
2.9815e-08
2.58871e-08
2.25079e-08
1.96077e-08
1.71247e-08
1.50042e-08
1.31976e-08
1.16619e-08
1.03589e-08
9.25443e-09
8.31839e-09
7.52392e-09
6.84738e-09
6.26825e-09
5.76903e-09
5.33528e-09
4.95554e-09
4.62112e-09
4.3257e-09
4.06459e-09
3.83386e-09
3.62969e-09
3.44807e-09
3.28491e-09
3.13633e-09
2.99905e-09
2.87066e-09
2.74956e-09
2.63484e-09
2.52598e-09
2.42271e-09
2.32488e-09
2.23231e-09
2.14478e-09
2.06211e-09
1.98417e-09
1.91085e-09
1.84205e-09
1.77759e-09
1.71732e-09
1.66114e-09
1.60909e-09
1.56116e-09
1.51725e-09
1.47732e-09
1.44135e-09
1.40944e-09
1.38169e-09
1.35827e-09
1.33942e-09
1.32546e-09
1.31689e-09
1.31443e-09
1.3191e-09
1.33251e-09
1.35748e-09
1.40149e-09
1.49986e-09
1.7547e-09
2.09641e-09
8.04908e-10
2.21175e-10
7.77217e-11
3.90398e-11
2.6617e-11
2.28363e-11
2.40073e-11
2.58099e-11
1.24467e-07
1.24457e-07
1.24427e-07
1.24372e-07
1.24298e-07
1.24216e-07
1.24129e-07
1.24039e-07
1.23948e-07
1.23857e-07
1.23766e-07
1.23676e-07
1.23586e-07
1.23497e-07
1.23408e-07
1.23319e-07
1.23231e-07
1.23144e-07
1.23057e-07
1.2297e-07
1.22884e-07
1.22798e-07
1.22713e-07
1.22628e-07
1.22543e-07
1.22459e-07
1.22376e-07
1.22292e-07
1.2221e-07
1.22127e-07
1.22046e-07
1.21964e-07
1.21883e-07
1.21803e-07
1.21723e-07
1.21643e-07
1.21564e-07
1.21485e-07
1.21407e-07
1.21329e-07
1.21252e-07
1.21175e-07
1.21098e-07
1.21022e-07
1.20946e-07
1.20871e-07
1.20796e-07
1.20721e-07
1.20647e-07
1.20573e-07
1.20499e-07
1.20426e-07
1.20353e-07
1.2028e-07
1.20208e-07
1.20136e-07
1.20065e-07
1.19994e-07
1.19923e-07
1.19853e-07
1.19783e-07
1.19713e-07
1.19644e-07
1.19575e-07
1.19506e-07
1.19438e-07
1.19371e-07
1.19303e-07
1.19236e-07
1.1917e-07
1.19104e-07
1.19038e-07
1.18973e-07
1.18908e-07
1.18843e-07
1.18779e-07
1.18715e-07
1.18652e-07
1.18589e-07
1.18527e-07
1.18465e-07
1.18404e-07
1.18343e-07
1.18283e-07
1.18223e-07
1.18164e-07
1.18105e-07
1.18046e-07
1.17989e-07
1.17931e-07
1.17875e-07
1.17819e-07
1.17763e-07
1.17708e-07
1.17654e-07
1.176e-07
1.17547e-07
1.17495e-07
1.17443e-07
1.17392e-07
1.17342e-07
1.17292e-07
1.17243e-07
1.17196e-07
1.17149e-07
1.17102e-07
1.17057e-07
1.17013e-07
1.16969e-07
1.16927e-07
1.16885e-07
1.16845e-07
1.16806e-07
1.16767e-07
1.1673e-07
1.16695e-07
1.1666e-07
1.16627e-07
1.16595e-07
1.16564e-07
1.16535e-07
1.16508e-07
1.16482e-07
1.16458e-07
1.16435e-07
1.16415e-07
1.16396e-07
1.16379e-07
1.16365e-07
1.16352e-07
1.16342e-07
1.16334e-07
1.16329e-07
1.16326e-07
1.16326e-07
1.16329e-07
1.16335e-07
1.16344e-07
1.16356e-07
1.16372e-07
1.16391e-07
1.16415e-07
1.16442e-07
1.16474e-07
1.1651e-07
1.16552e-07
1.16598e-07
1.16651e-07
1.16709e-07
1.16773e-07
1.16843e-07
1.1692e-07
1.17005e-07
1.17098e-07
1.17199e-07
1.17308e-07
1.17428e-07
1.17557e-07
1.17698e-07
1.17849e-07
1.18014e-07
1.18192e-07
1.18384e-07
1.18592e-07
1.18816e-07
1.19058e-07
1.19321e-07
1.19606e-07
1.19915e-07
1.2025e-07
1.20614e-07
1.21012e-07
1.21428e-07
1.21854e-07
1.22283e-07
1.22712e-07
1.23137e-07
1.23558e-07
1.23977e-07
1.24397e-07
1.24822e-07
1.25249e-07
1.25676e-07
1.26099e-07
1.26517e-07
1.26931e-07
1.2734e-07
1.27744e-07
1.28145e-07
1.28541e-07
1.28933e-07
1.29322e-07
1.29706e-07
1.30087e-07
1.30464e-07
1.30837e-07
1.31206e-07
1.31572e-07
1.31934e-07
1.32293e-07
1.31836e-07
1.22804e-07
1.06774e-07
9.27638e-08
8.0541e-08
6.98925e-08
6.06257e-08
5.2569e-08
4.5572e-08
3.95032e-08
3.4248e-08
2.97064e-08
2.57903e-08
2.24214e-08
1.95302e-08
1.70551e-08
1.49415e-08
1.31409e-08
1.16104e-08
1.03119e-08
9.21147e-09
8.2789e-09
7.48748e-09
6.81367e-09
6.23697e-09
5.73999e-09
5.3083e-09
4.93046e-09
4.59777e-09
4.3039e-09
4.04412e-09
3.81451e-09
3.61127e-09
3.43045e-09
3.26797e-09
3.12001e-09
2.98331e-09
2.85547e-09
2.73491e-09
2.62069e-09
2.51234e-09
2.40958e-09
2.31225e-09
2.22016e-09
2.13309e-09
2.05086e-09
1.97334e-09
1.90043e-09
1.83201e-09
1.76791e-09
1.70796e-09
1.65212e-09
1.60038e-09
1.55274e-09
1.50909e-09
1.46939e-09
1.43363e-09
1.40192e-09
1.37435e-09
1.35109e-09
1.33238e-09
1.31857e-09
1.31015e-09
1.30786e-09
1.31277e-09
1.32658e-09
1.3522e-09
1.39717e-09
1.49628e-09
1.75398e-09
2.14006e-09
8.2037e-10
2.23869e-10
7.72145e-11
3.87872e-11
2.73352e-11
2.1718e-11
2.10643e-11
2.23129e-11
1.24467e-07
1.24458e-07
1.2443e-07
1.24377e-07
1.24305e-07
1.24224e-07
1.24137e-07
1.24048e-07
1.23957e-07
1.23866e-07
1.23776e-07
1.23686e-07
1.23597e-07
1.23508e-07
1.2342e-07
1.23332e-07
1.23245e-07
1.23158e-07
1.23072e-07
1.22986e-07
1.229e-07
1.22814e-07
1.22729e-07
1.22645e-07
1.22561e-07
1.22477e-07
1.22394e-07
1.22311e-07
1.22229e-07
1.22147e-07
1.22066e-07
1.21985e-07
1.21904e-07
1.21824e-07
1.21744e-07
1.21665e-07
1.21586e-07
1.21508e-07
1.2143e-07
1.21352e-07
1.21275e-07
1.21198e-07
1.21122e-07
1.21046e-07
1.2097e-07
1.20895e-07
1.2082e-07
1.20746e-07
1.20671e-07
1.20598e-07
1.20524e-07
1.20451e-07
1.20378e-07
1.20306e-07
1.20234e-07
1.20162e-07
1.20091e-07
1.2002e-07
1.1995e-07
1.19879e-07
1.19809e-07
1.1974e-07
1.19671e-07
1.19602e-07
1.19534e-07
1.19466e-07
1.19398e-07
1.19331e-07
1.19264e-07
1.19197e-07
1.19131e-07
1.19065e-07
1.19e-07
1.18935e-07
1.18871e-07
1.18807e-07
1.18743e-07
1.1868e-07
1.18617e-07
1.18555e-07
1.18493e-07
1.18432e-07
1.18371e-07
1.1831e-07
1.18251e-07
1.18191e-07
1.18132e-07
1.18074e-07
1.18016e-07
1.17959e-07
1.17902e-07
1.17846e-07
1.1779e-07
1.17735e-07
1.1768e-07
1.17627e-07
1.17573e-07
1.17521e-07
1.17469e-07
1.17418e-07
1.17367e-07
1.17318e-07
1.17269e-07
1.17221e-07
1.17174e-07
1.17127e-07
1.17082e-07
1.17037e-07
1.16993e-07
1.16951e-07
1.16909e-07
1.16868e-07
1.16829e-07
1.1679e-07
1.16753e-07
1.16717e-07
1.16682e-07
1.16648e-07
1.16616e-07
1.16585e-07
1.16556e-07
1.16528e-07
1.16502e-07
1.16477e-07
1.16454e-07
1.16433e-07
1.16414e-07
1.16397e-07
1.16382e-07
1.16369e-07
1.16358e-07
1.1635e-07
1.16344e-07
1.1634e-07
1.1634e-07
1.16342e-07
1.16347e-07
1.16355e-07
1.16367e-07
1.16382e-07
1.16401e-07
1.16424e-07
1.1645e-07
1.16481e-07
1.16517e-07
1.16557e-07
1.16603e-07
1.16655e-07
1.16712e-07
1.16774e-07
1.16844e-07
1.1692e-07
1.17004e-07
1.17095e-07
1.17195e-07
1.17303e-07
1.17421e-07
1.17549e-07
1.17688e-07
1.17838e-07
1.18001e-07
1.18177e-07
1.18367e-07
1.18573e-07
1.18795e-07
1.19035e-07
1.19295e-07
1.19578e-07
1.19884e-07
1.20217e-07
1.20578e-07
1.20972e-07
1.21385e-07
1.21808e-07
1.22236e-07
1.22662e-07
1.23085e-07
1.23504e-07
1.2392e-07
1.24339e-07
1.24761e-07
1.25187e-07
1.25611e-07
1.26033e-07
1.2645e-07
1.26862e-07
1.27269e-07
1.27673e-07
1.28072e-07
1.28468e-07
1.28859e-07
1.29247e-07
1.2963e-07
1.3001e-07
1.30386e-07
1.30759e-07
1.31128e-07
1.31494e-07
1.31856e-07
1.32214e-07
1.3178e-07
1.226e-07
1.06591e-07
9.25996e-08
8.03935e-08
6.97598e-08
6.05063e-08
5.24617e-08
4.54758e-08
3.94169e-08
3.41707e-08
2.96371e-08
2.57279e-08
2.23652e-08
1.94794e-08