/*--------------------------------*- C++ -*----------------------------------*\
| =========                 |                                                 |
| \\      /  F ield         | OpenFOAM: The Open Source CFD Toolbox           |
|  \\    /   O peration     | Version:  2312                                  |
|   \\  /    A nd           | Website:  www.openfoam.com                      |
|    \\/     M anipulation  |                                                 |
\*---------------------------------------------------------------------------*/
FoamFile
{
    version     2.0;
    format      ascii;
    arch        "LSB;label=32;scalar=64";
    class       volScalarField;
    location    "6";
    object      omegaMean;
}
// * * * * * * * * * * * * * * * * * * * * * * * * * * * * * * * * * * * * * //

dimensions      [0 0 -1 0 0 0 0];

internalField   nonuniform List<scalar> 
154566
(
18.433
18.4201
18.4111
18.4059
18.403
18.4012
18.4003
18.4001
18.4002
18.4002
18.4003
18.4003
18.4003
18.4003
18.4003
18.4003
18.4003
18.4003
18.4003
18.4003
18.4003
18.4003
18.4003
18.4003
18.4003
18.4003
18.4003
18.4003
18.4004
18.4004
18.4004
18.4004
18.4004
18.4004
18.4004
18.4004
18.4004
18.4004
18.4004
18.4004
18.4005
18.4005
18.4005
18.4005
18.4005
18.4005
18.4005
18.4005
18.4005
18.4006
18.4006
18.4006
18.4006
18.4006
18.4007
18.4007
18.4007
18.4007
18.4007
18.4008
18.4008
18.4008
18.4008
18.4009
18.4009
18.4009
18.401
18.401
18.401
18.4011
18.4011
18.4011
18.4012
18.4012
18.4013
18.4013
18.4014
18.4014
18.4015
18.4015
18.4016
18.4016
18.4017
18.4018
18.4018
18.4019
18.402
18.4021
18.4021
18.4022
18.4023
18.4024
18.4025
18.4026
18.4027
18.4028
18.4029
18.4031
18.4032
18.4033
18.4034
18.4036
18.4037
18.4039
18.4041
18.4042
18.4044
18.4046
18.4048
18.405
18.4053
18.4055
18.4057
18.406
18.4063
18.4066
18.4069
18.4072
18.4075
18.4079
18.4083
18.4087
18.4091
18.4096
18.41
18.4105
18.4111
18.4116
18.4122
18.4129
18.4135
18.4143
18.415
18.4158
18.4167
18.4176
18.4186
18.4196
18.4207
18.4218
18.4231
18.4244
18.4258
18.4274
18.429
18.4307
18.4325
18.4345
18.4366
18.4388
18.4412
18.4437
18.4465
18.4494
18.4525
18.4559
18.4595
18.4634
18.4676
18.472
18.4768
18.4819
18.4873
18.4931
18.4992
18.5057
18.5124
18.5194
18.5265
18.5339
18.5415
18.549
18.5561
18.5626
18.5684
18.5736
18.5786
18.5833
18.5876
18.5907
18.5925
18.5931
18.5931
18.5929
18.5929
18.5928
18.5928
18.5929
18.5929
18.5929
18.5929
18.5929
18.5929
18.5929
18.5929
18.5929
18.593
18.593
18.593
18.593
18.5931
18.5956
18.6026
18.6157
18.6363
18.6651
18.7026
18.7487
18.8038
18.8685
18.9441
19.0326
19.1362
19.2578
19.4005
19.5681
19.7649
19.9958
20.2664
20.5828
20.9513
21.3783
21.8693
22.4279
23.0549
23.7472
24.4968
25.2913
26.1155
26.9546
27.7976
28.6383
29.476
30.3149
31.1641
32.0365
32.9476
33.9128
34.9461
36.0597
37.2638
38.5678
39.9818
41.5168
43.1786
44.9629
46.8704
48.9195
51.1498
53.6063
56.2848
59.1402
62.2155
65.6734
69.6224
73.9967
78.6682
83.6026
88.8638
94.5229
100.609
107.122
114.044
121.353
128.992
136.696
144.724
155.084
194.064
453.967
1595.25
5672
15963.1
35528
69210.6
141368
406996
1.73136e+06
1.29324e+07
18.433
18.4201
18.411
18.4057
18.4028
18.4011
18.4003
18.4001
18.4002
18.4002
18.4003
18.4003
18.4003
18.4003
18.4003
18.4003
18.4003
18.4003
18.4003
18.4003
18.4003
18.4003
18.4003
18.4003
18.4003
18.4003
18.4003
18.4003
18.4003
18.4004
18.4004
18.4004
18.4004
18.4004
18.4004
18.4004
18.4004
18.4004
18.4004
18.4004
18.4004
18.4005
18.4005
18.4005
18.4005
18.4005
18.4005
18.4005
18.4005
18.4006
18.4006
18.4006
18.4006
18.4006
18.4006
18.4007
18.4007
18.4007
18.4007
18.4008
18.4008
18.4008
18.4008
18.4009
18.4009
18.4009
18.401
18.401
18.401
18.4011
18.4011
18.4011
18.4012
18.4012
18.4013
18.4013
18.4014
18.4014
18.4015
18.4015
18.4016
18.4016
18.4017
18.4018
18.4018
18.4019
18.402
18.4021
18.4021
18.4022
18.4023
18.4024
18.4025
18.4026
18.4027
18.4028
18.4029
18.4031
18.4032
18.4033
18.4034
18.4036
18.4037
18.4039
18.4041
18.4042
18.4044
18.4046
18.4048
18.405
18.4053
18.4055
18.4057
18.406
18.4063
18.4066
18.4069
18.4072
18.4075
18.4079
18.4083
18.4087
18.4091
18.4096
18.41
18.4106
18.4111
18.4117
18.4123
18.4129
18.4136
18.4143
18.415
18.4159
18.4167
18.4176
18.4186
18.4196
18.4207
18.4219
18.4231
18.4245
18.4259
18.4274
18.429
18.4307
18.4326
18.4346
18.4366
18.4388
18.4412
18.4438
18.4465
18.4495
18.4526
18.456
18.4596
18.4635
18.4677
18.4722
18.477
18.482
18.4875
18.4933
18.4995
18.506
18.5128
18.5198
18.527
18.5344
18.542
18.5495
18.5566
18.563
18.5688
18.5739
18.5788
18.5836
18.5878
18.5909
18.5925
18.5931
18.5931
18.5929
18.5929
18.5928
18.5928
18.5929
18.5929
18.5929
18.5929
18.5929
18.5929
18.5929
18.5929
18.5929
18.593
18.593
18.593
18.593
18.5931
18.5956
18.6027
18.6159
18.6364
18.6653
18.7027
18.7487
18.8037
18.8684
18.944
19.0325
19.1361
19.2576
19.4003
19.5679
19.7646
19.9954
20.2658
20.582
20.9503
21.3772
21.8679
22.4262
23.0531
23.7454
24.4954
25.2908
26.1164
26.9575
27.8028
28.6461
29.4865
30.328
31.1797
32.0545
32.9679
33.9354
34.9712
36.0878
37.2954
38.603
40.0212
41.5599
43.2193
44.9903
46.8782
48.9145
51.1498
53.6257
56.3224
59.1948
62.3057
65.817
69.8039
74.1807
78.8381
83.7704
89.0489
94.7356
100.852
107.396
114.352
121.698
129.374
137.096
145.194
155.823
197.111
467.032
1651.94
5855.48
16393.2
36338.4
70670.9
143600
408651
1.73306e+06
1.29324e+07
18.433
18.42
18.4108
18.4056
18.4027
18.4011
18.4003
18.4001
18.4001
18.4002
18.4002
18.4003
18.4003
18.4003
18.4003
18.4003
18.4003
18.4003
18.4003
18.4003
18.4003
18.4003
18.4003
18.4003
18.4003
18.4003
18.4003
18.4003
18.4003
18.4003
18.4003
18.4004
18.4004
18.4004
18.4004
18.4004
18.4004
18.4004
18.4004
18.4004
18.4004
18.4004
18.4005
18.4005
18.4005
18.4005
18.4005
18.4005
18.4005
18.4005
18.4006
18.4006
18.4006
18.4006
18.4006
18.4007
18.4007
18.4007
18.4007
18.4007
18.4008
18.4008
18.4008
18.4008
18.4009
18.4009
18.4009
18.401
18.401
18.401
18.4011
18.4011
18.4012
18.4012
18.4013
18.4013
18.4014
18.4014
18.4015
18.4015
18.4016
18.4016
18.4017
18.4018
18.4018
18.4019
18.402
18.402
18.4021
18.4022
18.4023
18.4024
18.4025
18.4026
18.4027
18.4028
18.4029
18.403
18.4032
18.4033
18.4034
18.4036
18.4037
18.4039
18.404
18.4042
18.4044
18.4046
18.4048
18.405
18.4052
18.4055
18.4057
18.406
18.4063
18.4066
18.4069
18.4072
18.4075
18.4079
18.4083
18.4087
18.4091
18.4096
18.41
18.4105
18.4111
18.4116
18.4122
18.4129
18.4135
18.4143
18.415
18.4158
18.4167
18.4176
18.4186
18.4196
18.4207
18.4219
18.4231
18.4244
18.4258
18.4274
18.429
18.4307
18.4326
18.4346
18.4366
18.4388
18.4412
18.4438
18.4465
18.4495
18.4526
18.456
18.4597
18.4635
18.4677
18.4722
18.477
18.4821
18.4876
18.4934
18.4996
18.5061
18.5129
18.52
18.5272
18.5347
18.5423
18.5498
18.5569
18.5634
18.569
18.5741
18.579
18.5837
18.5879
18.5909
18.5926
18.5931
18.5931
18.5929
18.5929
18.5928
18.5928
18.5929
18.5929
18.5929
18.5929
18.5929
18.5929
18.5929
18.5929
18.5929
18.593
18.593
18.593
18.593
18.5931
18.5956
18.6027
18.6157
18.6362
18.6649
18.7021
18.7479
18.8027
18.8672
18.9426
19.0308
19.1342
19.2554
19.3976
19.5647
19.7608
19.9909
20.2605
20.5758
20.9432
21.3688
21.8583
22.4154
23.041
23.7324
24.4818
25.2771
26.1035
26.9461
27.7935
28.6392
29.482
30.326
31.1799
32.0567
32.9716
33.9404
34.9775
36.0956
37.3046
38.6134
40.0326
41.5702
43.2205
44.972
46.8395
48.8691
51.1178
53.6175
56.331
59.2171
62.3572
65.905
69.9047
74.2631
78.8957
83.8193
89.105
94.8049
100.935
107.494
114.47
121.842
129.551
137.307
145.498
156.163
197.024
463.512
1632.99
5788
16243.8
36122.9
70507.6
144908
411311
1.73516e+06
1.29324e+07
18.433
18.4201
18.4108
18.4055
18.4027
18.4011
18.4003
18.4001
18.4001
18.4002
18.4002
18.4002
18.4003
18.4003
18.4003
18.4003
18.4003
18.4003
18.4003
18.4003
18.4003
18.4003
18.4003
18.4003
18.4003
18.4003
18.4003
18.4003
18.4003
18.4003
18.4003
18.4003
18.4003
18.4004
18.4004
18.4004
18.4004
18.4004
18.4004
18.4004
18.4004
18.4004
18.4004
18.4005
18.4005
18.4005
18.4005
18.4005
18.4005
18.4005
18.4005
18.4006
18.4006
18.4006
18.4006
18.4006
18.4007
18.4007
18.4007
18.4007
18.4008
18.4008
18.4008
18.4008
18.4009
18.4009
18.4009
18.401
18.401
18.401
18.4011
18.4011
18.4012
18.4012
18.4012
18.4013
18.4013
18.4014
18.4014
18.4015
18.4015
18.4016
18.4017
18.4017
18.4018
18.4019
18.4019
18.402
18.4021
18.4022
18.4023
18.4024
18.4025
18.4026
18.4027
18.4028
18.4029
18.403
18.4031
18.4033
18.4034
18.4036
18.4037
18.4039
18.404
18.4042
18.4044
18.4046
18.4048
18.405
18.4052
18.4055
18.4057
18.406
18.4062
18.4065
18.4068
18.4072
18.4075
18.4079
18.4082
18.4087
18.4091
18.4095
18.41
18.4105
18.411
18.4116
18.4122
18.4129
18.4135
18.4142
18.415
18.4158
18.4167
18.4176
18.4186
18.4196
18.4207
18.4219
18.4231
18.4244
18.4258
18.4274
18.429
18.4308
18.4326
18.4346
18.4366
18.4389
18.4412
18.4438
18.4466
18.4495
18.4527
18.4561
18.4597
18.4636
18.4678
18.4723
18.4771
18.4822
18.4876
18.4934
18.4997
18.5062
18.5131
18.5201
18.5274
18.5349
18.5425
18.55
18.5571
18.5636
18.5692
18.5742
18.579
18.5836
18.5878
18.5909
18.5925
18.5931
18.5931
18.5929
18.5929
18.5928
18.5928
18.5928
18.5929
18.5929
18.5929
18.5929
18.5929
18.5929
18.5929
18.5929
18.593
18.593
18.593
18.593
18.5931
18.5956
18.6026
18.6156
18.6359
18.6643
18.7012
18.7469
18.8014
18.8657
18.9408
19.0287
19.1317
19.2524
19.3941
19.5606
19.756
19.9852
20.2539
20.5682
20.9342
21.3585
21.8465
22.402
23.026
23.716
24.4644
25.2594
26.0863
26.9302
27.7796
28.6276
29.4731
30.3197
31.1759
32.0545
32.9707
33.9402
34.9781
36.0971
37.3064
38.6145
40.0323
41.565
43.2016
44.9324
46.7859
48.8202
51.0926
53.6195
56.3469
59.2424
62.4053
65.9771
69.9749
74.3061
78.9122
83.8263
89.1155
94.8225
100.96
107.527
114.514
121.902
129.63
137.396
145.636
156.155
195.286
450.431
1576.16
5597.55
15789.1
35293.1
69072.8
143069
408607
1.74168e+06
1.29324e+07
18.4332
18.4204
18.4111
18.4056
18.4027
18.4011
18.4003
18.4001
18.4001
18.4002
18.4002
18.4002
18.4002
18.4002
18.4003
18.4003
18.4003
18.4003
18.4003
18.4003
18.4003
18.4003
18.4003
18.4003
18.4003
18.4003
18.4003
18.4003
18.4003
18.4003
18.4003
18.4003
18.4003
18.4003
18.4004
18.4004
18.4004
18.4004
18.4004
18.4004
18.4004
18.4004
18.4004
18.4004
18.4005
18.4005
18.4005
18.4005
18.4005
18.4005
18.4005
18.4006
18.4006
18.4006
18.4006
18.4006
18.4006
18.4007
18.4007
18.4007
18.4007
18.4008
18.4008
18.4008
18.4008
18.4009
18.4009
18.4009
18.401
18.401
18.4011
18.4011
18.4011
18.4012
18.4012
18.4013
18.4013
18.4014
18.4014
18.4015
18.4015
18.4016
18.4017
18.4017
18.4018
18.4019
18.4019
18.402
18.4021
18.4022
18.4023
18.4024
18.4024
18.4025
18.4027
18.4028
18.4029
18.403
18.4031
18.4033
18.4034
18.4035
18.4037
18.4038
18.404
18.4042
18.4044
18.4046
18.4048
18.405
18.4052
18.4054
18.4057
18.4059
18.4062
18.4065
18.4068
18.4071
18.4075
18.4079
18.4082
18.4086
18.4091
18.4095
18.41
18.4105
18.411
18.4116
18.4122
18.4128
18.4135
18.4142
18.415
18.4158
18.4167
18.4176
18.4186
18.4196
18.4207
18.4219
18.4231
18.4244
18.4258
18.4274
18.429
18.4308
18.4326
18.4346
18.4366
18.4389
18.4412
18.4438
18.4466
18.4495
18.4527
18.4561
18.4597
18.4636
18.4678
18.4723
18.477
18.4822
18.4876
18.4934
18.4996
18.5062
18.5131
18.5201
18.5274
18.5349
18.5425
18.5501
18.5572
18.5636
18.5692
18.5742
18.5789
18.5835
18.5876
18.5908
18.5925
18.5931
18.5931
18.593
18.5929
18.5928
18.5928
18.5928
18.5929
18.5929
18.5929
18.5929
18.5929
18.5929
18.5929
18.5929
18.593
18.593
18.593
18.593
18.5931
18.5955
18.6024
18.6153
18.6354
18.6636
18.7003
18.7456
18.7999
18.8639
18.9387
19.0262
19.1287
19.249
19.3901
19.5559
19.7505
19.9788
20.2464
20.5594
20.924
21.3467
21.8328
22.3864
23.0086
23.6968
24.444
25.2385
26.0657
26.911
27.7624
28.613
29.4613
30.3105
31.1689
32.0491
32.966
33.9358
34.9742
36.0934
37.3013
38.6063
40.0196
41.5435
43.1638
44.8771
46.7269
48.7784
51.0819
53.6345
56.369
59.2676
62.4463
66.031
70.0161
74.3163
78.8971
83.8023
89.0926
94.8028
100.944
107.516
114.511
121.912
129.657
137.43
145.715
156.022
192.741
433.205
1502.43
5356.44
15218.2
34300.1
67793.3
141711
408062
1.73809e+06
1.29277e+07
18.4333
18.4207
18.4113
18.4057
18.4027
18.4011
18.4003
18.4001
18.4001
18.4002
18.4002
18.4002
18.4002
18.4002
18.4002
18.4002
18.4003
18.4003
18.4003
18.4003
18.4003
18.4003
18.4003
18.4003
18.4003
18.4003
18.4003
18.4003
18.4003
18.4003
18.4003
18.4003
18.4003
18.4003
18.4003
18.4004
18.4004
18.4004
18.4004
18.4004
18.4004
18.4004
18.4004
18.4004
18.4004
18.4005
18.4005
18.4005
18.4005
18.4005
18.4005
18.4005
18.4006
18.4006
18.4006
18.4006
18.4006
18.4007
18.4007
18.4007
18.4007
18.4008
18.4008
18.4008
18.4008
18.4009
18.4009
18.4009
18.401
18.401
18.401
18.4011
18.4011
18.4012
18.4012
18.4013
18.4013
18.4014
18.4014
18.4015
18.4015
18.4016
18.4016
18.4017
18.4018
18.4018
18.4019
18.402
18.4021
18.4022
18.4022
18.4023
18.4024
18.4025
18.4026
18.4027
18.4029
18.403
18.4031
18.4032
18.4034
18.4035
18.4037
18.4038
18.404
18.4042
18.4044
18.4046
18.4048
18.405
18.4052
18.4054
18.4057
18.4059
18.4062
18.4065
18.4068
18.4071
18.4075
18.4078
18.4082
18.4086
18.4091
18.4095
18.41
18.4105
18.411
18.4116
18.4122
18.4128
18.4135
18.4142
18.415
18.4158
18.4167
18.4176
18.4186
18.4196
18.4207
18.4219
18.4231
18.4244
18.4259
18.4274
18.4291
18.4308
18.4326
18.4346
18.4366
18.4389
18.4413
18.4438
18.4466
18.4495
18.4527
18.4561
18.4597
18.4636
18.4678
18.4723
18.4771
18.4822
18.4876
18.4934
18.4997
18.5062
18.5131
18.5202
18.5275
18.535
18.5427
18.5503
18.5573
18.5637
18.5693
18.5742
18.5789
18.5835
18.5876
18.5907
18.5925
18.5931
18.5931
18.593
18.5929
18.5928
18.5928
18.5928
18.5929
18.5929
18.5929
18.5929
18.5929
18.5929
18.5929
18.5929
18.593
18.593
18.593
18.593
18.5931
18.5955
18.6024
18.6153
18.6353
18.6633
18.6997
18.7449
18.799
18.8628
18.9375
19.0248
19.1271
19.247
19.3878
19.5531
19.7473
19.9751
20.242
20.5542
20.9179
21.3395
21.8246
22.3769
22.9979
23.6851
24.4317
25.2261
26.0541
26.9009
27.7546
28.608
29.459
30.3108
31.1715
32.0532
32.9712
33.9422
34.982
36.1016
37.3073
38.6077
40.015
41.529
43.1348
44.8397
46.7012
48.7842
51.1253
53.7014
56.4369
59.3362
62.5313
66.1291
70.1038
74.3805
78.9469
83.8538
89.1548
94.878
101.033
107.621
114.635
122.055
129.816
137.58
145.907
156.159
192.325
428.186
1483.61
5292.43
15065.2
34009.3
67487
140647
406990
1.73206e+06
1.29324e+07
18.4333
18.4207
18.4112
18.4055
18.4026
18.401
18.4003
18.4001
18.4001
18.4002
18.4002
18.4002
18.4002
18.4002
18.4002
18.4002
18.4002
18.4003
18.4003
18.4003
18.4003
18.4003
18.4003
18.4003
18.4003
18.4003
18.4003
18.4003
18.4003
18.4003
18.4003
18.4003
18.4003
18.4003
18.4003
18.4003
18.4004
18.4004
18.4004
18.4004
18.4004
18.4004
18.4004
18.4004
18.4004
18.4004
18.4005
18.4005
18.4005
18.4005
18.4005
18.4005
18.4006
18.4006
18.4006
18.4006
18.4006
18.4006
18.4007
18.4007
18.4007
18.4007
18.4008
18.4008
18.4008
18.4009
18.4009
18.4009
18.401
18.401
18.401
18.4011
18.4011
18.4012
18.4012
18.4012
18.4013
18.4013
18.4014
18.4014
18.4015
18.4016
18.4016
18.4017
18.4018
18.4018
18.4019
18.402
18.4021
18.4021
18.4022
18.4023
18.4024
18.4025
18.4026
18.4027
18.4029
18.403
18.4031
18.4032
18.4034
18.4035
18.4037
18.4038
18.404
18.4042
18.4044
18.4045
18.4047
18.405
18.4052
18.4054
18.4057
18.4059
18.4062
18.4065
18.4068
18.4071
18.4075
18.4078
18.4082
18.4086
18.4091
18.4095
18.41
18.4105
18.411
18.4116
18.4122
18.4129
18.4135
18.4143
18.415
18.4158
18.4167
18.4176
18.4186
18.4196
18.4207
18.4219
18.4231
18.4245
18.4259
18.4275
18.4291
18.4308
18.4326
18.4346
18.4366
18.4389
18.4413
18.4439
18.4466
18.4496
18.4527
18.4561
18.4597
18.4636
18.4678
18.4723
18.4771
18.4823
18.4877
18.4936
18.4998
18.5064
18.5133
18.5205
18.5278
18.5354
18.5431
18.5507
18.5577
18.5641
18.5695
18.5744
18.5791
18.5836
18.5878
18.5908
18.5925
18.5931
18.5931
18.593
18.5929
18.5928
18.5928
18.5929
18.5929
18.5929
18.5929
18.5929
18.5929
18.5929
18.5929
18.5929
18.593
18.593
18.593
18.593
18.5931
18.5956
18.6025
18.6153
18.6353
18.6632
18.6996
18.7446
18.7986
18.8623
18.9369
19.0242
19.1263
19.2461
19.3868
19.5519
19.7458
19.9733
20.2399
20.5516
20.9149
21.3359
21.8203
22.3721
22.9924
23.6792
24.4256
25.2204
26.0495
26.898
27.7539
28.6097
29.4632
30.3174
31.18
32.0634
32.983
33.9562
34.998
36.117
37.318
38.6116
40.0115
41.5156
43.1118
44.82
46.7079
48.831
51.2093
53.8006
56.5287
59.4267
62.6398
66.2516
70.2189
74.48
79.0424
83.9598
89.2789
95.0227
101.2
107.814
114.858
122.311
130.106
137.884
146.314
156.72
193.955
434.644
1510.29
5374.3
15264.1
34417.9
68281
142579
408916
1.73343e+06
1.29324e+07
18.4333
18.4207
18.4111
18.4054
18.4025
18.401
18.4003
18.4001
18.4001
18.4002
18.4002
18.4002
18.4002
18.4002
18.4002
18.4002
18.4002
18.4002
18.4003
18.4003
18.4003
18.4003
18.4003
18.4003
18.4003
18.4003
18.4003
18.4003
18.4003
18.4003
18.4003
18.4003
18.4003
18.4003
18.4003
18.4003
18.4003
18.4004
18.4004
18.4004
18.4004
18.4004
18.4004
18.4004
18.4004
18.4004
18.4005
18.4005
18.4005
18.4005
18.4005
18.4005
18.4005
18.4006
18.4006
18.4006
18.4006
18.4006
18.4007
18.4007
18.4007
18.4007
18.4008
18.4008
18.4008
18.4008
18.4009
18.4009
18.4009
18.401
18.401
18.4011
18.4011
18.4011
18.4012
18.4012
18.4013
18.4013
18.4014
18.4014
18.4015
18.4015
18.4016
18.4017
18.4017
18.4018
18.4019
18.402
18.402
18.4021
18.4022
18.4023
18.4024
18.4025
18.4026
18.4027
18.4028
18.403
18.4031
18.4032
18.4034
18.4035
18.4036
18.4038
18.404
18.4041
18.4043
18.4045
18.4047
18.4049
18.4052
18.4054
18.4057
18.4059
18.4062
18.4065
18.4068
18.4071
18.4075
18.4078
18.4082
18.4086
18.409
18.4095
18.41
18.4105
18.411
18.4116
18.4122
18.4128
18.4135
18.4142
18.415
18.4158
18.4167
18.4176
18.4185
18.4196
18.4207
18.4219
18.4231
18.4244
18.4259
18.4275
18.4291
18.4308
18.4326
18.4345
18.4366
18.4389
18.4413
18.4439
18.4466
18.4496
18.4527
18.4561
18.4598
18.4637
18.4679
18.4724
18.4772
18.4823
18.4878
18.4936
18.4999
18.5065
18.5135
18.5207
18.528
18.5356
18.5434
18.551
18.558
18.5644
18.5698
18.5746
18.5792
18.5838
18.5879
18.5909
18.5925
18.5931
18.5931
18.593
18.5929
18.5928
18.5928
18.5929
18.5929
18.5929
18.5929
18.5929
18.5929
18.5929
18.5929
18.5929
18.593
18.593
18.593
18.593
18.5931
18.5955
18.6025
18.6152
18.6351
18.6628
18.699
18.7438
18.7976
18.8611
18.9355
19.0225
19.1244
19.2438
19.3841
19.5487
19.742
19.9688
20.2345
20.5454
20.9076
21.3274
21.8105
22.3609
22.98
23.6656
24.4112
25.2059
26.0355
26.8853
27.743
28.601
29.4566
30.3128
31.1771
32.062
32.9834
33.9585
35.0003
36.1145
37.3056
38.5883
39.9788
41.4739
43.0664
44.788
46.7086
48.8675
51.2698
53.86
56.5691
59.461
62.6866
66.3039
70.2585
74.5033
79.06
83.982
89.3096
95.0624
101.25
107.875
114.932
122.404
130.22
138.008
146.533
156.907
193.312
428.27
1480.67
5270.78
15020.1
33989
67536.3
142810
410707
1.73613e+06
1.29324e+07
18.4334
18.4208
18.4112
18.4054
18.4025
18.401
18.4003
18.4001
18.4001
18.4002
18.4002
18.4002
18.4002
18.4002
18.4002
18.4002
18.4002
18.4002
18.4002
18.4002
18.4003
18.4003
18.4003
18.4003
18.4003
18.4003
18.4003
18.4003
18.4003
18.4003
18.4003
18.4003
18.4003
18.4003
18.4003
18.4003
18.4003
18.4003
18.4004
18.4004
18.4004
18.4004
18.4004
18.4004
18.4004
18.4004
18.4004
18.4005
18.4005
18.4005
18.4005
18.4005
18.4005
18.4005
18.4006
18.4006
18.4006
18.4006
18.4006
18.4007
18.4007
18.4007
18.4007
18.4008
18.4008
18.4008
18.4009
18.4009
18.4009
18.401
18.401
18.401
18.4011
18.4011
18.4012
18.4012
18.4013
18.4013
18.4014
18.4014
18.4015
18.4015
18.4016
18.4017
18.4017
18.4018
18.4019
18.4019
18.402
18.4021
18.4022
18.4023
18.4024
18.4025
18.4026
18.4027
18.4028
18.4029
18.4031
18.4032
18.4033
18.4035
18.4036
18.4038
18.404
18.4041
18.4043
18.4045
18.4047
18.4049
18.4051
18.4054
18.4056
18.4059
18.4062
18.4065
18.4068
18.4071
18.4074
18.4078
18.4082
18.4086
18.409
18.4095
18.4099
18.4105
18.411
18.4116
18.4122
18.4128
18.4135
18.4142
18.415
18.4158
18.4166
18.4176
18.4185
18.4196
18.4207
18.4218
18.4231
18.4245
18.4259
18.4274
18.4291
18.4308
18.4326
18.4345
18.4366
18.4389
18.4413
18.4439
18.4466
18.4496
18.4527
18.4561
18.4598
18.4637
18.4679
18.4724
18.4772
18.4824
18.4878
18.4937
18.5
18.5066
18.5136
18.5208
18.5282
18.5358
18.5435
18.5511
18.5582
18.5645
18.5699
18.5746
18.5792
18.5837
18.5877
18.5908
18.5925
18.5931
18.5931
18.593
18.5929
18.5928
18.5928
18.5929
18.5929
18.5929
18.5929
18.5929
18.5929
18.5929
18.5929
18.5929
18.593
18.593
18.593
18.593
18.5931
18.5955
18.6023
18.615
18.6347
18.6622
18.6981
18.7427
18.7963
18.8595
18.9336
19.0203
19.1218
19.2408
19.3804
19.5444
19.7369
19.9628
20.2276
20.5373
20.8982
21.3166
21.7981
22.3468
22.9642
23.6483
24.3928
25.1869
26.0167
26.8674
27.7267
28.5865
29.4442
30.3024
31.1687
32.0555
32.9791
33.9557
34.9948
36.0993
37.2765
38.5474
39.9304
41.4215
43.0186
44.7618
46.7156
48.9005
51.3126
53.888
56.5715
59.4578
62.6953
66.3153
70.257
74.4876
79.0388
83.962
89.2923
95.0473
101.237
107.865
114.927
122.408
130.236
138.029
146.633
156.85
191.324
414.367
1419.52
5062.29
14506.9
33031.5
65884.2
140021
405411
1.7453e+06
1.29324e+07
18.4336
18.4213
18.4116
18.4056
18.4025
18.401
18.4003
18.4001
18.4001
18.4002
18.4002
18.4002
18.4002
18.4002
18.4002
18.4002
18.4002
18.4002
18.4002
18.4002
18.4002
18.4002
18.4003
18.4003
18.4003
18.4003
18.4003
18.4003
18.4003
18.4003
18.4003
18.4003
18.4003
18.4003
18.4003
18.4003
18.4003
18.4003
18.4003
18.4004
18.4004
18.4004
18.4004
18.4004
18.4004
18.4004
18.4004
18.4004
18.4005
18.4005
18.4005
18.4005
18.4005
18.4005
18.4006
18.4006
18.4006
18.4006
18.4006
18.4007
18.4007
18.4007
18.4007
18.4008
18.4008
18.4008
18.4008
18.4009
18.4009
18.4009
18.401
18.401
18.4011
18.4011
18.4011
18.4012
18.4012
18.4013
18.4013
18.4014
18.4015
18.4015
18.4016
18.4016
18.4017
18.4018
18.4019
18.4019
18.402
18.4021
18.4022
18.4023
18.4024
18.4025
18.4026
18.4027
18.4028
18.4029
18.403
18.4032
18.4033
18.4035
18.4036
18.4038
18.4039
18.4041
18.4043
18.4045
18.4047
18.4049
18.4051
18.4054
18.4056
18.4059
18.4062
18.4064
18.4068
18.4071
18.4074
18.4078
18.4082
18.4086
18.409
18.4095
18.4099
18.4104
18.411
18.4115
18.4122
18.4128
18.4135
18.4142
18.415
18.4158
18.4166
18.4175
18.4185
18.4196
18.4207
18.4218
18.4231
18.4245
18.4259
18.4274
18.4291
18.4308
18.4326
18.4345
18.4366
18.4389
18.4413
18.4439
18.4466
18.4496
18.4527
18.4561
18.4598
18.4637
18.4679
18.4724
18.4772
18.4823
18.4878
18.4936
18.4999
18.5066
18.5135
18.5207
18.5281
18.5357
18.5435
18.5512
18.5582
18.5645
18.5698
18.5745
18.579
18.5835
18.5875
18.5906
18.5924
18.593
18.5931
18.593
18.5929
18.5928
18.5928
18.5929
18.5929
18.5929
18.5929
18.5929
18.5929
18.5929
18.5929
18.5929
18.593
18.593
18.593
18.593
18.5931
18.5954
18.6022
18.6148
18.6343
18.6616
18.6973
18.7415
18.7949
18.8578
18.9317
19.018
19.119
19.2376
19.3767
19.54
19.7318
19.9568
20.2206
20.5291
20.8887
21.3056
21.7855
22.3324
22.9481
23.6305
24.3737
25.1671
25.9969
26.8485
27.7093
28.5712
29.4314
30.2921
31.1608
32.0502
32.9764
33.9533
34.9861
36.0768
37.239
38.5014
39.8831
41.3778
42.9877
44.7563
46.738
48.9362
51.3456
53.8966
56.5534
59.4398
62.6929
66.3165
70.2473
74.4669
79.0143
83.938
89.2689
95.0234
101.212
107.84
114.904
122.389
130.219
138.009
146.668
156.659
188.899
398.351
1353.92
4853.65
14003.8
32192.7
65099.7
139348
407208
1.732e+06
1.29298e+07
18.4336
18.4213
18.4116
18.4055
18.4024
18.401
18.4003
18.4001
18.4001
18.4001
18.4002
18.4002
18.4002
18.4002
18.4002
18.4002
18.4002
18.4002
18.4002
18.4002
18.4002
18.4002
18.4002
18.4003
18.4003
18.4003
18.4003
18.4003
18.4003
18.4003
18.4003
18.4003
18.4003
18.4003
18.4003
18.4003
18.4003
18.4003
18.4003
18.4004
18.4004
18.4004
18.4004
18.4004
18.4004
18.4004
18.4004
18.4004
18.4004
18.4005
18.4005
18.4005
18.4005
18.4005
18.4005
18.4006
18.4006
18.4006
18.4006
18.4006
18.4007
18.4007
18.4007
18.4007
18.4008
18.4008
18.4008
18.4009
18.4009
18.4009
18.401
18.401
18.4011
18.4011
18.4011
18.4012
18.4012
18.4013
18.4013
18.4014
18.4014
18.4015
18.4016
18.4016
18.4017
18.4018
18.4018
18.4019
18.402
18.4021
18.4022
18.4023
18.4024
18.4025
18.4026
18.4027
18.4028
18.4029
18.403
18.4032
18.4033
18.4034
18.4036
18.4038
18.4039
18.4041
18.4043
18.4045
18.4047
18.4049
18.4051
18.4054
18.4056
18.4059
18.4062
18.4064
18.4068
18.4071
18.4074
18.4078
18.4082
18.4086
18.409
18.4095
18.4099
18.4105
18.411
18.4116
18.4122
18.4128
18.4135
18.4142
18.415
18.4158
18.4167
18.4176
18.4186
18.4196
18.4207
18.4219
18.4231
18.4245
18.4259
18.4275
18.4291
18.4309
18.4327
18.4346
18.4367
18.4389
18.4413
18.4439
18.4467
18.4496
18.4528
18.4562
18.4598
18.4637
18.4679
18.4724
18.4773
18.4824
18.4879
18.4938
18.5
18.5067
18.5137
18.521
18.5284
18.536
18.5438
18.5515
18.5585
18.5647
18.5699
18.5746
18.5791
18.5835
18.5875
18.5906
18.5923
18.593
18.5931
18.593
18.5929
18.5928
18.5928
18.5929
18.5929
18.5929
18.5929
18.5929
18.5929
18.5929
18.5929
18.5929
18.593
18.593
18.593
18.593
18.5931
18.5955
18.6023
18.6149
18.6344
18.6617
18.6973
18.7414
18.7947
18.8576
18.9314
19.0177
19.1187
19.2371
19.3762
19.5395
19.7311
19.9561
20.2197
20.528
20.8873
21.304
21.7835
22.3301
22.9453
23.6274
24.3704
25.1641
25.9946
26.8475
27.7103
28.5746
29.4376
30.3014
31.1732
32.0659
32.9955
33.9716
34.9956
36.0717
37.2237
38.4876
39.8791
41.3871
43.0173
44.8138
46.8189
49.0228
51.4257
53.9503
56.588
59.4919
62.7763
66.4148
70.346
74.5677
79.1255
84.0645
89.4122
95.1848
101.394
108.046
115.138
122.654
130.508
138.331
147.11
157.198
190.609
405.602
1388.46
4963.87
14267.8
32700.7
66089.7
140188
407042
1.73258e+06
1.29323e+07
18.4336
18.4213
18.4115
18.4054
18.4023
18.4009
18.4003
18.4001
18.4001
18.4001
18.4002
18.4002
18.4002
18.4002
18.4002
18.4002
18.4002
18.4002
18.4002
18.4002
18.4002
18.4002
18.4002
18.4002
18.4002
18.4003
18.4003
18.4003
18.4003
18.4003
18.4003
18.4003
18.4003
18.4003
18.4003
18.4003
18.4003
18.4003
18.4003
18.4003
18.4004
18.4004
18.4004
18.4004
18.4004
18.4004
18.4004
18.4004
18.4004
18.4005
18.4005
18.4005
18.4005
18.4005
18.4005
18.4006
18.4006
18.4006
18.4006
18.4006
18.4007
18.4007
18.4007
18.4007
18.4008
18.4008
18.4008
18.4009
18.4009
18.4009
18.401
18.401
18.401
18.4011
18.4011
18.4012
18.4012
18.4013
18.4013
18.4014
18.4014
18.4015
18.4016
18.4016
18.4017
18.4018
18.4018
18.4019
18.402
18.4021
18.4022
18.4022
18.4023
18.4024
18.4025
18.4027
18.4028
18.4029
18.403
18.4032
18.4033
18.4034
18.4036
18.4037
18.4039
18.4041
18.4043
18.4045
18.4047
18.4049
18.4051
18.4054
18.4056
18.4059
18.4061
18.4064
18.4067
18.4071
18.4074
18.4078
18.4082
18.4086
18.409
18.4095
18.4099
18.4104
18.411
18.4116
18.4122
18.4128
18.4135
18.4142
18.415
18.4158
18.4166
18.4176
18.4185
18.4196
18.4207
18.4219
18.4231
18.4245
18.4259
18.4275
18.4291
18.4308
18.4326
18.4346
18.4367
18.4389
18.4413
18.4439
18.4467
18.4496
18.4528
18.4562
18.4598
18.4637
18.4679
18.4724
18.4773
18.4824
18.4879
18.4938
18.5001
18.5068
18.5138
18.5211
18.5286
18.5362
18.5441
18.5517
18.5588
18.5649
18.5701
18.5748
18.5792
18.5837
18.5876
18.5906
18.5924
18.593
18.5931
18.593
18.5929
18.5928
18.5928
18.5929
18.5929
18.5929
18.5929
18.5929
18.5929
18.5929
18.5929
18.5929
18.593
18.593
18.593
18.593
18.5931
18.5955
18.6024
18.6149
18.6344
18.6615
18.6969
18.7409
18.794
18.8568
18.9304
19.0166
19.1174
19.2357
19.3744
19.5374
19.7287
19.9532
20.2162
20.5239
20.8825
21.2982
21.7768
22.3223
22.9364
23.6176
24.36
25.1534
25.9845
26.8386
27.7032
28.57
29.4359
30.3025
31.1768
32.0722
33.003
33.9746
34.9858
36.0477
37.1958
38.4698
39.8769
41.4004
43.0486
44.8641
46.8776
49.0732
51.4621
53.9554
56.5795
59.5073
62.8193
66.4644
70.3899
74.609
79.1708
84.1167
89.472
95.2536
101.475
108.142
115.255
122.796
130.676
138.659
147.591
157.731
191.245
406.195
1388.22
4956.78
14251.8
32712.5
66233.9
141740
409334
1.73423e+06
1.29323e+07
18.4336
18.4213
18.4115
18.4053
18.4022
18.4009
18.4003
18.4001
18.4001
18.4001
18.4002
18.4002
18.4002
18.4002
18.4002
18.4002
18.4002
18.4002
18.4002
18.4002
18.4002
18.4002
18.4002
18.4002
18.4002
18.4002
18.4002
18.4002
18.4003
18.4003
18.4003
18.4003
18.4003
18.4003
18.4003
18.4003
18.4003
18.4003
18.4003
18.4003
18.4003
18.4004
18.4004
18.4004
18.4004
18.4004
18.4004
18.4004
18.4004
18.4004
18.4005
18.4005
18.4005
18.4005
18.4005
18.4005
18.4006
18.4006
18.4006
18.4006
18.4007
18.4007
18.4007
18.4007
18.4008
18.4008
18.4008
18.4008
18.4009
18.4009
18.4009
18.401
18.401
18.4011
18.4011
18.4012
18.4012
18.4013
18.4013
18.4014
18.4014
18.4015
18.4015
18.4016
18.4017
18.4017
18.4018
18.4019
18.402
18.4021
18.4021
18.4022
18.4023
18.4024
18.4025
18.4026
18.4028
18.4029
18.403
18.4031
18.4033
18.4034
18.4036
18.4037
18.4039
18.4041
18.4043
18.4044
18.4047
18.4049
18.4051
18.4053
18.4056
18.4058
18.4061
18.4064
18.4067
18.407
18.4074
18.4078
18.4081
18.4085
18.409
18.4094
18.4099
18.4104
18.411
18.4115
18.4121
18.4128
18.4134
18.4142
18.4149
18.4157
18.4166
18.4175
18.4185
18.4195
18.4207
18.4218
18.4231
18.4245
18.4259
18.4275
18.4291
18.4308
18.4326
18.4345
18.4366
18.4389
18.4413
18.4439
18.4466
18.4496
18.4528
18.4562
18.4598
18.4637
18.4679
18.4725
18.4773
18.4825
18.488
18.4939
18.5002
18.5069
18.514
18.5213
18.5288
18.5365
18.5443
18.552
18.5591
18.5652
18.5704
18.575
18.5794
18.5838
18.5877
18.5907
18.5924
18.593
18.5931
18.593
18.5929
18.5928
18.5928
18.5929
18.5929
18.5929
18.5929
18.5929
18.5929
18.5929
18.5929
18.5929
18.593
18.593
18.593
18.593
18.593
18.5955
18.6023
18.6148
18.6341
18.6611
18.6963
18.7401
18.793
18.8556
18.929
19.0149
19.1154
19.2333
19.3717
19.5341
19.7248
19.9486
20.2108
20.5175
20.875
21.2895
21.7667
22.3107
22.9235
23.6033
24.3448
25.1378
25.9692
26.8244
27.6907
28.5598
29.4283
30.2972
31.1732
32.07
32.9997
33.9633
34.9608
36.0133
37.1668
38.4585
39.8832
41.4193
43.079
44.9029
46.9128
49.093
51.4668
53.9274
56.5461
59.503
62.8367
66.48
70.3944
74.6069
79.1676
84.1145
89.4715
95.256
101.482
108.158
115.281
122.835
130.729
139.324
148.379
158.475
190.963
399.035
1351.81
4825.1
13918.5
32078.7
65110.2
140766
408427
1.73864e+06
1.29323e+07
18.4337
18.4216
18.4117
18.4054
18.4023
18.4009
18.4003
18.4001
18.4001
18.4001
18.4002
18.4002
18.4002
18.4002
18.4002
18.4002
18.4002
18.4002
18.4002
18.4002
18.4002
18.4002
18.4002
18.4002
18.4002
18.4002
18.4002
18.4002
18.4002
18.4003
18.4003
18.4003
18.4003
18.4003
18.4003
18.4003
18.4003
18.4003
18.4003
18.4003
18.4003
18.4003
18.4004
18.4004
18.4004
18.4004