/*--------------------------------*- C++ -*----------------------------------*\
| =========                 |                                                 |
| \\      /  F ield         | OpenFOAM: The Open Source CFD Toolbox           |
|  \\    /   O peration     | Version:  2312                                  |
|   \\  /    A nd           | Website:  www.openfoam.com                      |
|    \\/     M anipulation  |                                                 |
\*---------------------------------------------------------------------------*/
FoamFile
{
    version     2.0;
    format      ascii;
    arch        "LSB;label=32;scalar=64";
    class       surfaceScalarField;
    location    "6";
    object      phiMean;
}
// * * * * * * * * * * * * * * * * * * * * * * * * * * * * * * * * * * * * * //

dimensions      [0 3 -1 0 0 0 0];

oriented        oriented;

internalField   nonuniform List<scalar> 
308578
(
3.87893e-05
-1.77936e-05
1.80022e-05
3.85813e-05
-1.77437e-05
1.79517e-05
3.83732e-05
-1.7746e-05
1.7954e-05
3.81652e-05
-1.77477e-05
1.79557e-05
3.79571e-05
-1.77488e-05
1.79569e-05
3.77489e-05
-1.77493e-05
1.79575e-05
3.75407e-05
-1.77493e-05
1.79575e-05
3.73324e-05
-1.77486e-05
1.79569e-05
3.7124e-05
-1.77474e-05
1.79557e-05
3.69157e-05
-1.77456e-05
1.79539e-05
3.67073e-05
-1.77432e-05
1.79516e-05
3.64989e-05
-1.77402e-05
1.79486e-05
3.62905e-05
-1.77367e-05
1.79451e-05
3.60822e-05
-1.77327e-05
1.7941e-05
3.58738e-05
-1.77281e-05
1.79365e-05
3.56655e-05
-1.7723e-05
1.79313e-05
3.54573e-05
-1.77174e-05
1.79257e-05
3.5249e-05
-1.77113e-05
1.79195e-05
3.50408e-05
-1.77046e-05
1.79128e-05
3.48327e-05
-1.76974e-05
1.79056e-05
3.46246e-05
-1.76898e-05
1.78979e-05
3.44166e-05
-1.76816e-05
1.78896e-05
3.42087e-05
-1.7673e-05
1.78809e-05
3.40008e-05
-1.76638e-05
1.78717e-05
3.37931e-05
-1.76542e-05
1.7862e-05
3.35854e-05
-1.76441e-05
1.78518e-05
3.33778e-05
-1.76336e-05
1.78411e-05
3.31704e-05
-1.76225e-05
1.783e-05
3.2963e-05
-1.7611e-05
1.78183e-05
3.27558e-05
-1.7599e-05
1.78062e-05
3.25487e-05
-1.75865e-05
1.77936e-05
3.23418e-05
-1.75735e-05
1.77805e-05
3.2135e-05
-1.756e-05
1.77668e-05
3.19283e-05
-1.7546e-05
1.77527e-05
3.17218e-05
-1.75315e-05
1.7738e-05
3.15155e-05
-1.75164e-05
1.77227e-05
3.13094e-05
-1.75008e-05
1.7707e-05
3.11035e-05
-1.74847e-05
1.76907e-05
3.08977e-05
-1.7468e-05
1.76738e-05
3.06922e-05
-1.74508e-05
1.76563e-05
3.04869e-05
-1.7433e-05
1.76383e-05
3.02818e-05
-1.74147e-05
1.76197e-05
3.0077e-05
-1.73957e-05
1.76006e-05
2.98724e-05
-1.73762e-05
1.75808e-05
2.9668e-05
-1.73562e-05
1.75605e-05
2.94639e-05
-1.73355e-05
1.75396e-05
2.92601e-05
-1.73142e-05
1.7518e-05
2.90566e-05
-1.72923e-05
1.74959e-05
2.88534e-05
-1.72698e-05
1.74731e-05
2.86504e-05
-1.72467e-05
1.74496e-05
2.84478e-05
-1.7223e-05
1.74256e-05
2.82455e-05
-1.71986e-05
1.74009e-05
2.80435e-05
-1.71736e-05
1.73756e-05
2.78419e-05
-1.7148e-05
1.73497e-05
2.76405e-05
-1.71218e-05
1.73231e-05
2.74396e-05
-1.7095e-05
1.7296e-05
2.72389e-05
-1.70675e-05
1.72682e-05
2.70387e-05
-1.70395e-05
1.72398e-05
2.68387e-05
-1.70109e-05
1.72108e-05
2.66392e-05
-1.69816e-05
1.71812e-05
2.644e-05
-1.69518e-05
1.7151e-05
2.62412e-05
-1.69214e-05
1.71202e-05
2.60428e-05
-1.68904e-05
1.70888e-05
2.58447e-05
-1.68588e-05
1.70568e-05
2.56471e-05
-1.68266e-05
1.70243e-05
2.54498e-05
-1.67938e-05
1.69911e-05
2.5253e-05
-1.67605e-05
1.69573e-05
2.50565e-05
-1.67266e-05
1.6923e-05
2.48605e-05
-1.66921e-05
1.68881e-05
2.46649e-05
-1.6657e-05
1.68526e-05
2.44697e-05
-1.66214e-05
1.68166e-05
2.4275e-05
-1.65852e-05
1.678e-05
2.40807e-05
-1.65485e-05
1.67428e-05
2.38868e-05
-1.65112e-05
1.67051e-05
2.36934e-05
-1.64733e-05
1.66668e-05
2.35004e-05
-1.6435e-05
1.66279e-05
2.33079e-05
-1.6396e-05
1.65886e-05
2.31158e-05
-1.63566e-05
1.65487e-05
2.29242e-05
-1.63166e-05
1.65082e-05
2.2733e-05
-1.62761e-05
1.64672e-05
2.25424e-05
-1.62351e-05
1.64257e-05
2.23522e-05
-1.61935e-05
1.63837e-05
2.21625e-05
-1.61514e-05
1.63411e-05
2.19733e-05
-1.61088e-05
1.62981e-05
2.17846e-05
-1.60658e-05
1.62545e-05
2.15964e-05
-1.60222e-05
1.62104e-05
2.14087e-05
-1.59781e-05
1.61658e-05
2.12215e-05
-1.59335e-05
1.61207e-05
2.10348e-05
-1.58884e-05
1.60751e-05
2.08487e-05
-1.58429e-05
1.6029e-05
2.0663e-05
-1.57968e-05
1.59825e-05
2.04779e-05
-1.57503e-05
1.59354e-05
2.02933e-05
-1.57033e-05
1.58879e-05
2.01093e-05
-1.56559e-05
1.58399e-05
1.99258e-05
-1.5608e-05
1.57915e-05
1.97429e-05
-1.55596e-05
1.57425e-05
1.95605e-05
-1.55108e-05
1.56931e-05
1.93786e-05
-1.54615e-05
1.56433e-05
1.91974e-05
-1.54118e-05
1.5593e-05
1.90167e-05
-1.53616e-05
1.55423e-05
1.88365e-05
-1.5311e-05
1.54912e-05
1.86569e-05
-1.526e-05
1.54396e-05
1.8478e-05
-1.52085e-05
1.53875e-05
1.82996e-05
-1.51566e-05
1.5335e-05
1.81218e-05
-1.51043e-05
1.52821e-05
1.79445e-05
-1.50516e-05
1.52288e-05
1.77679e-05
-1.49985e-05
1.51751e-05
1.75919e-05
-1.49449e-05
1.51209e-05
1.74166e-05
-1.48909e-05
1.50663e-05
1.72418e-05
-1.48365e-05
1.50113e-05
1.70677e-05
-1.47817e-05
1.49558e-05
1.68942e-05
-1.47265e-05
1.49e-05
1.67213e-05
-1.46708e-05
1.48437e-05
1.65491e-05
-1.46148e-05
1.4787e-05
1.63775e-05
-1.45584e-05
1.47299e-05
1.62065e-05
-1.45015e-05
1.46725e-05
1.60362e-05
-1.44443e-05
1.46146e-05
1.58666e-05
-1.43867e-05
1.45563e-05
1.56977e-05
-1.43286e-05
1.44976e-05
1.55294e-05
-1.42702e-05
1.44385e-05
1.53618e-05
-1.42114e-05
1.4379e-05
1.51949e-05
-1.41522e-05
1.43191e-05
1.50286e-05
-1.40926e-05
1.42589e-05
1.48631e-05
-1.40327e-05
1.41982e-05
1.46982e-05
-1.39723e-05
1.41371e-05
1.45341e-05
-1.39116e-05
1.40757e-05
1.43707e-05
-1.38505e-05
1.40139e-05
1.4208e-05
-1.3789e-05
1.39517e-05
1.4046e-05
-1.37271e-05
1.38891e-05
1.38847e-05
-1.36648e-05
1.38261e-05
1.37242e-05
-1.36022e-05
1.37627e-05
1.35644e-05
-1.35392e-05
1.3699e-05
1.34053e-05
-1.34758e-05
1.36349e-05
1.3247e-05
-1.34121e-05
1.35704e-05
1.30894e-05
-1.3348e-05
1.35055e-05
1.29326e-05
-1.32835e-05
1.34403e-05
1.27766e-05
-1.32186e-05
1.33747e-05
1.26213e-05
-1.31534e-05
1.33087e-05
1.24668e-05
-1.30879e-05
1.32424e-05
1.2313e-05
-1.3022e-05
1.31757e-05
1.21601e-05
-1.29557e-05
1.31087e-05
1.20079e-05
-1.28891e-05
1.30413e-05
1.18565e-05
-1.28221e-05
1.29735e-05
1.17059e-05
-1.27548e-05
1.29054e-05
1.15561e-05
-1.26871e-05
1.2837e-05
1.14071e-05
-1.26192e-05
1.27682e-05
1.12589e-05
-1.25508e-05
1.2699e-05
1.11115e-05
-1.24822e-05
1.26296e-05
1.09649e-05
-1.24132e-05
1.25598e-05
1.08191e-05
-1.23439e-05
1.24897e-05
1.06742e-05
-1.22743e-05
1.24192e-05
1.05301e-05
-1.22044e-05
1.23485e-05
1.03867e-05
-1.21341e-05
1.22774e-05
1.02443e-05
-1.20636e-05
1.2206e-05
1.01026e-05
-1.19927e-05
1.21343e-05
9.96181e-06
-1.19215e-05
1.20623e-05
9.82184e-06
-1.18501e-05
1.199e-05
9.68271e-06
-1.17783e-05
1.19175e-05
9.54443e-06
-1.17063e-05
1.18446e-05
9.40699e-06
-1.1634e-05
1.17714e-05
9.27041e-06
-1.15614e-05
1.1698e-05
9.13469e-06
-1.14885e-05
1.16242e-05
8.99982e-06
-1.14154e-05
1.15502e-05
8.86582e-06
-1.1342e-05
1.1476e-05
8.73268e-06
-1.12683e-05
1.14015e-05
8.6004e-06
-1.11944e-05
1.13267e-05
8.469e-06
-1.11203e-05
1.12517e-05
8.33846e-06
-1.10459e-05
1.11764e-05
8.2088e-06
-1.09712e-05
1.11009e-05
8.08002e-06
-1.08964e-05
1.10251e-05
7.95211e-06
-1.08213e-05
1.09492e-05
7.82509e-06
-1.0746e-05
1.0873e-05
7.69895e-06
-1.06704e-05
1.07966e-05
7.5737e-06
-1.05947e-05
1.072e-05
7.44933e-06
-1.05188e-05
1.06432e-05
7.32586e-06
-1.04427e-05
1.05661e-05
7.20328e-06
-1.03664e-05
1.04889e-05
7.0816e-06
-1.02899e-05
1.04116e-05
6.96081e-06
-1.02132e-05
1.0334e-05
6.84093e-06
-1.01364e-05
1.02563e-05
6.72194e-06
-1.00594e-05
1.01784e-05
6.60386e-06
-9.98226e-06
1.01003e-05
6.48669e-06
-9.90498e-06
1.00221e-05
6.37042e-06
-9.82755e-06
9.94381e-06
6.25507e-06
-9.74998e-06
9.86534e-06
6.14063e-06
-9.6723e-06
9.78674e-06
6.0271e-06
-9.59449e-06
9.70801e-06
5.91449e-06
-9.51656e-06
9.62917e-06
5.8028e-06
-9.43854e-06
9.55023e-06
5.69203e-06
-9.36041e-06
9.47118e-06
5.58218e-06
-9.28219e-06
9.39204e-06
5.47326e-06
-9.20388e-06
9.31281e-06
5.36526e-06
-9.1255e-06
9.2335e-06
5.2582e-06
-9.04705e-06
9.15411e-06
5.15206e-06
-8.96853e-06
9.07466e-06
5.04686e-06
-8.88995e-06
8.99516e-06
4.94259e-06
-8.81133e-06
8.91559e-06
4.83926e-06
-8.73266e-06
8.83599e-06
4.73687e-06
-8.65395e-06
8.75634e-06
4.63542e-06
-8.57521e-06
8.67666e-06
4.53491e-06
-8.49644e-06
8.59695e-06
4.43535e-06
-8.41766e-06
8.51722e-06
4.33674e-06
-8.33886e-06
8.43747e-06
4.23907e-06
-8.26005e-06
8.35771e-06
4.14236e-06
-8.18124e-06
8.27795e-06
4.0466e-06
-8.10243e-06
8.19819e-06
3.9518e-06
-8.02362e-06
8.11843e-06
3.85795e-06
-7.94483e-06
8.03867e-06
3.76507e-06
-7.86605e-06
7.95893e-06
3.67315e-06
-7.78728e-06
7.8792e-06
3.58219e-06
-7.70853e-06
7.79948e-06
3.4922e-06
-7.62979e-06
7.71978e-06
3.40318e-06
-7.55107e-06
7.64009e-06
3.31514e-06
-7.47237e-06
7.56042e-06
3.22807e-06
-7.39368e-06
7.48075e-06
3.14198e-06
-7.315e-06
7.40109e-06
3.05686e-06
-7.23632e-06
7.32143e-06
2.97274e-06
-7.15764e-06
7.24177e-06
2.8896e-06
-7.07895e-06
7.16209e-06
2.80745e-06
-7.00024e-06
7.08239e-06
2.7263e-06
-6.92149e-06
7.00264e-06
2.64614e-06
-6.8427e-06
6.92285e-06
2.56699e-06
-6.76384e-06
6.84299e-06
2.48884e-06
-6.68489e-06
6.76304e-06
2.4117e-06
-6.60584e-06
6.68298e-06
2.33558e-06
-6.52665e-06
6.60278e-06
2.26047e-06
-6.44731e-06
6.52242e-06
2.18639e-06
-6.36777e-06
6.44186e-06
2.11333e-06
-6.288e-06
6.36106e-06
2.04131e-06
-6.20797e-06
6.27999e-06
1.97032e-06
-6.12762e-06
6.19861e-06
1.90038e-06
-6.04692e-06
6.11686e-06
1.83149e-06
-5.96579e-06
6.03469e-06
1.76366e-06
-5.8842e-06
5.95204e-06
1.69688e-06
-5.80208e-06
5.86885e-06
1.63118e-06
-5.71935e-06
5.78505e-06
1.56656e-06
-5.63595e-06
5.70057e-06
1.50302e-06
-5.55179e-06
5.61532e-06
1.44058e-06
-5.46679e-06
5.52923e-06
1.37924e-06
-5.38086e-06
5.4422e-06
1.31901e-06
-5.2939e-06
5.35413e-06
1.2599e-06
-5.20581e-06
5.26492e-06
1.20193e-06
-5.11648e-06
5.17445e-06
1.1451e-06
-5.02581e-06
5.08263e-06
1.08943e-06
-4.93366e-06
4.98933e-06
1.03494e-06
-4.83992e-06
4.89441e-06
9.81623e-07
-4.74445e-06
4.79777e-06
9.29509e-07
-4.64714e-06
4.69925e-06
8.78612e-07
-4.54784e-06
4.59874e-06
8.28947e-07
-4.44642e-06
4.49608e-06
7.80535e-07
-4.34274e-06
4.39115e-06
7.33393e-07
-4.23667e-06
4.28381e-06
6.87543e-07
-4.12807e-06
4.17392e-06
6.43007e-07
-4.0168e-06
4.06134e-06
5.99808e-07
-3.90275e-06
3.94595e-06
5.57971e-07
-3.78579e-06
3.82763e-06
5.1752e-07
-3.6658e-06
3.70625e-06
4.78482e-07
-3.54269e-06
3.58172e-06
4.40885e-07
-3.41635e-06
3.45395e-06
4.04754e-07
-3.28672e-06
3.32285e-06
3.70117e-07
-3.15372e-06
3.18835e-06
3.36994e-07
-3.0173e-06
3.05042e-06
3.05402e-07
-2.87744e-06
2.90904e-06
2.75345e-07
-2.73413e-06
2.76419e-06
2.46807e-07
-2.58737e-06
2.61591e-06
2.19746e-07
-2.43718e-06
2.46424e-06
1.94082e-07
-2.28362e-06
2.30928e-06
1.69688e-07
-2.12674e-06
2.15113e-06
1.46397e-07
-1.96649e-06
1.98978e-06
1.24029e-07
-1.80202e-06
1.82438e-06
1.02501e-07
-1.6295e-06
1.65102e-06
8.19892e-08
-1.43923e-06
1.45974e-06
6.29205e-08
-1.21747e-06
1.23654e-06
4.5663e-08
-9.59023e-07
9.76281e-07
3.02387e-08
-6.81076e-07
6.965e-07
1.66079e-08
-4.20457e-07
4.34088e-07
6.48593e-09
-2.14606e-07
2.24728e-07
1.54961e-09
-8.15084e-08
8.64447e-08
-1.83773e-08
1.99269e-08
3.87893e-05
-1.7585e-05
3.85813e-05
-1.75357e-05
3.83732e-05
-1.75379e-05
3.81651e-05
-1.75395e-05
3.79568e-05
-1.75406e-05
3.77486e-05
-1.7541e-05
3.75402e-05
-1.75409e-05
3.73318e-05
-1.75402e-05
3.71234e-05
-1.7539e-05
3.69149e-05
-1.75371e-05
3.67065e-05
-1.75347e-05
3.64981e-05
-1.75318e-05
3.62896e-05
-1.75283e-05
3.60812e-05
-1.75243e-05
3.58728e-05
-1.75197e-05
3.56645e-05
-1.75146e-05
3.54561e-05
-1.75091e-05
3.52478e-05
-1.75029e-05
3.50396e-05
-1.74963e-05
3.48314e-05
-1.74892e-05
3.46232e-05
-1.74816e-05
3.44152e-05
-1.74736e-05
3.42072e-05
-1.7465e-05
3.39993e-05
-1.74559e-05
3.37915e-05
-1.74464e-05
3.35838e-05
-1.74364e-05
3.33762e-05
-1.74259e-05
3.31686e-05
-1.7415e-05
3.29612e-05
-1.74036e-05
3.2754e-05
-1.73917e-05
3.25468e-05
-1.73794e-05
3.23398e-05
-1.73665e-05
3.2133e-05
-1.73532e-05
3.19263e-05
-1.73393e-05
3.17197e-05
-1.73249e-05
3.15134e-05
-1.73101e-05
3.13072e-05
-1.72947e-05
3.11012e-05
-1.72787e-05
3.08954e-05
-1.72623e-05
3.06898e-05
-1.72452e-05
3.04844e-05
-1.72277e-05
3.02793e-05
-1.72095e-05
3.00744e-05
-1.71908e-05
2.98697e-05
-1.71716e-05
2.96653e-05
-1.71517e-05
2.94612e-05
-1.71313e-05
2.92573e-05
-1.71103e-05
2.90538e-05
-1.70887e-05
2.88505e-05
-1.70665e-05
2.86475e-05
-1.70437e-05
2.84448e-05
-1.70203e-05
2.82424e-05
-1.69963e-05
2.80404e-05
-1.69716e-05
2.78387e-05
-1.69463e-05
2.76373e-05
-1.69204e-05
2.74363e-05
-1.6894e-05
2.72356e-05
-1.68669e-05
2.70353e-05
-1.68392e-05
2.68354e-05
-1.68109e-05
2.66358e-05
-1.6782e-05
2.64365e-05
-1.67526e-05
2.62377e-05
-1.67225e-05
2.60392e-05
-1.66919e-05
2.58411e-05
-1.66607e-05
2.56434e-05
-1.66289e-05
2.54462e-05
-1.65966e-05
2.52493e-05
-1.65636e-05
2.50528e-05
-1.65301e-05
2.48567e-05
-1.6496e-05
2.46611e-05
-1.64614e-05
2.44659e-05
-1.64262e-05
2.42711e-05
-1.63904e-05
2.40768e-05
-1.63541e-05
2.38829e-05
-1.63173e-05
2.36894e-05
-1.62799e-05
2.34964e-05
-1.6242e-05
2.33039e-05
-1.62035e-05
2.31118e-05
-1.61645e-05
2.29201e-05
-1.6125e-05
2.2729e-05
-1.60849e-05
2.25383e-05
-1.60444e-05
2.23481e-05
-1.60033e-05
2.21584e-05
-1.59617e-05
2.19692e-05
-1.59196e-05
2.17804e-05
-1.5877e-05
2.15922e-05
-1.58339e-05
2.14045e-05
-1.57904e-05
2.12173e-05
-1.57463e-05
2.10306e-05
-1.57017e-05
2.08444e-05
-1.56567e-05
2.06587e-05
-1.56112e-05
2.04736e-05
-1.55652e-05
2.0289e-05
-1.55187e-05
2.0105e-05
-1.54718e-05
1.99214e-05
-1.54244e-05
1.97385e-05
-1.53766e-05
1.95561e-05
-1.53283e-05
1.93742e-05
-1.52796e-05
1.91929e-05
-1.52305e-05
1.90122e-05
-1.51809e-05
1.8832e-05
-1.51308e-05
1.86524e-05
-1.50804e-05
1.84734e-05
-1.50295e-05
1.8295e-05
-1.49782e-05
1.81172e-05
-1.49265e-05
1.79399e-05
-1.48744e-05
1.77633e-05
-1.48218e-05
1.75873e-05
-1.47689e-05
1.74119e-05
-1.47155e-05
1.72371e-05
-1.46617e-05
1.70629e-05
-1.46075e-05
1.68894e-05
-1.45529e-05
1.67165e-05
-1.44979e-05
1.65442e-05
-1.44425e-05
1.63726e-05
-1.43867e-05
1.62017e-05
-1.43306e-05
1.60314e-05
-1.4274e-05
1.58617e-05
-1.4217e-05
1.56927e-05
-1.41596e-05
1.55244e-05
-1.41019e-05
1.53568e-05
-1.40438e-05
1.51898e-05
-1.39852e-05
1.50235e-05
-1.39264e-05
1.4858e-05
-1.38671e-05
1.46931e-05
-1.38074e-05
1.45289e-05
-1.37474e-05
1.43654e-05
-1.3687e-05
1.42027e-05
-1.36262e-05
1.40407e-05
-1.3565e-05
1.38793e-05
-1.35035e-05
1.37188e-05
-1.34416e-05
1.35589e-05
-1.33794e-05
1.33998e-05
-1.33167e-05
1.32415e-05
-1.32537e-05
1.30839e-05
-1.31904e-05
1.2927e-05
-1.31266e-05
1.27709e-05
-1.30626e-05
1.26156e-05
-1.29981e-05
1.2461e-05
-1.29333e-05
1.23072e-05
-1.28682e-05
1.21542e-05
-1.28027e-05
1.2002e-05
-1.27368e-05
1.18506e-05
-1.26707e-05
1.16999e-05
-1.26041e-05
1.15501e-05
-1.25373e-05
1.1401e-05
-1.24701e-05
1.12527e-05
-1.24026e-05
1.11053e-05
-1.23347e-05
1.09586e-05
-1.22666e-05
1.08128e-05
-1.21981e-05
1.06678e-05
-1.21293e-05
1.05236e-05
-1.20602e-05
1.03802e-05
-1.19907e-05
1.02377e-05
-1.1921e-05
1.0096e-05
-1.1851e-05
9.95512e-06
-1.17807e-05
9.81508e-06
-1.171e-05
9.67589e-06
-1.16391e-05
9.53754e-06
-1.15679e-05
9.40004e-06
-1.14965e-05
9.2634e-06
-1.14247e-05
9.1276e-06
-1.13527e-05
8.99267e-06
-1.12804e-05
8.85859e-06
-1.12079e-05
8.72538e-06
-1.11351e-05
8.59303e-06
-1.10621e-05
8.46155e-06
-1.09888e-05
8.33094e-06
-1.09152e-05
8.2012e-06
-1.08415e-05
8.07234e-06
-1.07675e-05
7.94435e-06
-1.06933e-05
7.81725e-06
-1.06189e-05
7.69103e-06
-1.05442e-05
7.56569e-06
-1.04694e-05
7.44124e-06
-1.03943e-05
7.31768e-06
-1.03191e-05
7.19501e-06
-1.02437e-05
7.07323e-06
-1.01681e-05
6.95235e-06
-1.00923e-05
6.83237e-06
-1.00164e-05
6.71329e-06
-9.94032e-06
6.59511e-06
-9.86408e-06
6.47783e-06
-9.7877e-06
6.36146e-06
-9.71118e-06
6.246e-06
-9.63452e-06
6.13145e-06
-9.55774e-06
6.01781e-06
-9.48085e-06
5.90508e-06
-9.40384e-06
5.79328e-06
-9.32673e-06
5.68238e-06
-9.24952e-06
5.57241e-06
-9.17222e-06
5.46336e-06
-9.09483e-06
5.35523e-06
-9.01737e-06
5.24803e-06
-8.93985e-06
5.14176e-06
-8.86225e-06
5.03641e-06
-8.78461e-06
4.932e-06
-8.70691e-06
4.82852e-06
-8.62917e-06
4.72597e-06
-8.5514e-06
4.62436e-06
-8.4736e-06
4.52369e-06
-8.39577e-06
4.42396e-06
-8.31792e-06
4.32517e-06
-8.24007e-06
4.22732e-06
-8.1622e-06
4.13043e-06
-8.08434e-06
4.03448e-06
-8.00648e-06
3.93948e-06
-7.92862e-06
3.84543e-06
-7.85078e-06
3.75234e-06
-7.77295e-06
3.6602e-06
-7.69514e-06
3.56902e-06
-7.61735e-06
3.47881e-06
-7.53958e-06
3.38955e-06
-7.46182e-06
3.30127e-06
-7.38408e-06
3.21395e-06
-7.30636e-06
3.1276e-06
-7.22865e-06
3.04222e-06
-7.15095e-06
2.95783e-06
-7.07324e-06
2.87441e-06
-6.99553e-06
2.79197e-06
-6.9178e-06
2.71052e-06
-6.84004e-06
2.63006e-06
-6.76223e-06
2.55059e-06
-6.68437e-06
2.47212e-06
-6.60642e-06
2.39464e-06
-6.52837e-06
2.31817e-06
-6.45018e-06
2.24271e-06
-6.37185e-06
2.16826e-06
-6.29332e-06
2.09483e-06
-6.21457e-06
2.02243e-06
-6.13556e-06
1.95105e-06
-6.05624e-06
1.8807e-06
-5.97657e-06
1.81139e-06
-5.89649e-06
1.74313e-06
-5.81594e-06
1.67592e-06
-5.73487e-06
1.60978e-06
-5.6532e-06
1.54469e-06
-5.57086e-06
1.48069e-06
-5.48778e-06
1.41777e-06
-5.40387e-06
1.35594e-06
-5.31903e-06
1.29522e-06
-5.23317e-06
1.23561e-06
-5.1462e-06
1.17712e-06
-5.058e-06
1.11977e-06
-4.96846e-06
1.06358e-06
-4.87746e-06
1.00855e-06
-4.78488e-06
9.54691e-07
-4.6906e-06
9.02033e-07
-4.59448e-06
8.50586e-07
-4.49639e-06
8.0037e-07
-4.3962e-06
7.51404e-07
-4.29378e-06
7.03708e-07
-4.18897e-06
6.57304e-07
-4.08166e-06
6.12216e-07
-3.97172e-06
5.68469e-07
-3.859e-06
5.26087e-07
-3.74341e-06
4.85099e-07
-3.62481e-06
4.45533e-07
-3.50312e-06
4.0742e-07
-3.37824e-06
3.70789e-07
-3.25009e-06
3.35675e-07
-3.1186e-06
3.02113e-07
-2.98374e-06
2.7014e-07
-2.84547e-06
2.39798e-07
-2.70379e-06
2.11132e-07
-2.5587e-06
1.84191e-07
-2.41024e-06
1.59026e-07
-2.25846e-06
1.35687e-07
-2.1034e-06
1.14214e-07
-1.94501e-06
9.46358e-08
-1.78244e-06
7.69622e-08
-1.61182e-06
6.11781e-08
-1.42344e-06
4.71926e-08
-1.20348e-06
3.48442e-08
-9.46675e-07
2.39717e-08
-6.70203e-07
1.42286e-08
-4.10714e-07
5.91626e-09
-2.06293e-07
1.24122e-09
-7.68333e-08
-1.71361e-08
3.87892e-05
-1.73764e-05
3.85812e-05
-1.73276e-05
3.8373e-05
-1.73297e-05
3.81648e-05
-1.73313e-05
3.79564e-05
-1.73323e-05
3.7748e-05
-1.73327e-05
3.75396e-05
-1.73325e-05
3.73312e-05
-1.73318e-05
3.71227e-05
-1.73305e-05
3.69142e-05
-1.73287e-05
3.67058e-05
-1.73263e-05
3.64973e-05
-1.73233e-05
3.62888e-05
-1.73198e-05
3.60804e-05
-1.73158e-05
3.58719e-05
-1.73113e-05
3.56635e-05
-1.73062e-05
3.54551e-05
-1.73007e-05
3.52467e-05
-1.72946e-05
3.50384e-05
-1.7288e-05
3.48302e-05
-1.7281e-05
3.4622e-05
-1.72735e-05
3.44139e-05
-1.72655e-05
3.42059e-05
-1.7257e-05
3.39979e-05
-1.7248e-05
3.37901e-05
-1.72385e-05
3.35823e-05
-1.72286e-05
3.33746e-05
-1.72183e-05
3.31671e-05
-1.72074e-05
3.29596e-05
-1.71962e-05
3.27523e-05
-1.71844e-05
3.25451e-05
-1.71722e-05
3.2338e-05
-1.71594e-05
3.21311e-05
-1.71462e-05
3.19244e-05
-1.71325e-05
3.17178e-05
-1.71184e-05
3.15113e-05
-1.71036e-05
3.13051e-05
-1.70884e-05
3.10991e-05
-1.70727e-05
3.08932e-05
-1.70564e-05
3.06876e-05
-1.70396e-05
3.04821e-05
-1.70222e-05
3.02769e-05
-1.70043e-05
3.0072e-05
-1.69859e-05
2.98673e-05
-1.69669e-05
2.96628e-05
-1.69473e-05
2.94586e-05
-1.69271e-05
2.92547e-05
-1.69064e-05
2.90511e-05
-1.68851e-05
2.88477e-05
-1.68632e-05
2.86447e-05
-1.68407e-05
2.8442e-05
-1.68176e-05
2.82395e-05
-1.67938e-05
2.80375e-05
-1.67695e-05
2.78357e-05
-1.67446e-05
2.76343e-05
-1.6719e-05
2.74332e-05
-1.66929e-05
2.72325e-05
-1.66662e-05
2.70322e-05
-1.66388e-05
2.68322e-05
-1.66109e-05
2.66325e-05
-1.65824e-05
2.64332e-05
-1.65533e-05
2.62344e-05
-1.65236e-05
2.60359e-05
-1.64934e-05
2.58377e-05
-1.64626e-05
2.564e-05
-1.64312e-05
2.54427e-05
-1.63992e-05
2.52458e-05
-1.63667e-05
2.50493e-05
-1.63336e-05
2.48532e-05
-1.62999e-05
2.46575e-05
-1.62657e-05
2.44623e-05
-1.6231e-05
2.42675e-05
-1.61956e-05
2.40731e-05
-1.61598e-05
2.38792e-05
-1.61234e-05
2.36857e-05
-1.60864e-05
2.34927e-05
-1.60489e-05
2.33001e-05
-1.60109e-05
2.3108e-05
-1.59724e-05
2.29163e-05
-1.59333e-05
2.27252e-05
-1.58938e-05
2.25345e-05
-1.58537e-05
2.23443e-05
-1.58131e-05
2.21545e-05
-1.5772e-05
2.19653e-05
-1.57304e-05
2.17765e-05
-1.56883e-05
2.15883e-05
-1.56457e-05
2.14005e-05
-1.56026e-05
2.12133e-05
-1.55591e-05
2.10266e-05
-1.5515e-05
2.08404e-05
-1.54705e-05
2.06547e-05
-1.54255e-05
2.04696e-05
-1.53801e-05
2.0285e-05
-1.53341e-05
2.01009e-05
-1.52878e-05
1.99174e-05
-1.52409e-05
1.97344e-05
-1.51936e-05
1.9552e-05
-1.51459e-05
1.93701e-05
-1.50977e-05
1.91888e-05
-1.50492e-05
1.9008e-05
-1.50001e-05
1.88278e-05
-1.49507e-05
1.86482e-05
-1.49008e-05
1.84692e-05
-1.48505e-05
1.82908e-05
-1.47998e-05
1.81129e-05
-1.47487e-05
1.79357e-05
-1.46971e-05
1.7759e-05
-1.46452e-05
1.7583e-05
-1.45928e-05
1.74076e-05
-1.45401e-05
1.72327e-05
-1.44869e-05
1.70586e-05
-1.44333e-05
1.6885e-05
-1.43794e-05
1.67121e-05
-1.4325e-05
1.65398e-05
-1.42703e-05
1.63682e-05
-1.42151e-05
1.61972e-05
-1.41596e-05
1.60268e-05
-1.41036e-05
1.58572e-05
-1.40473e-05
1.56881e-05
-1.39906e-05
1.55198e-05
-1.39336e-05
1.53521e-05
-1.38761e-05
1.51852e-05
-1.38183e-05
1.50189e-05
-1.37601e-05
1.48532e-05
-1.37015e-05
1.46883e-05
-1.36425e-05
1.45241e-05
-1.35832e-05
1.43606e-05
-1.35235e-05
1.41978e-05
-1.34634e-05
1.40358e-05
-1.3403e-05
1.38744e-05
-1.33422e-05
1.37138e-05
-1.3281e-05
1.35539e-05
-1.32195e-05
1.33948e-05
-1.31576e-05
1.32364e-05
-1.30953e-05
1.30787e-05
-1.30327e-05
1.29218e-05
-1.29697e-05
1.27657e-05
-1.29064e-05
1.26103e-05
-1.28427e-05
1.24557e-05
-1.27787e-05
1.23019e-05
-1.27143e-05
1.21488e-05
-1.26496e-05
1.19966e-05
-1.25846e-05
1.18451e-05
-1.25192e-05
1.16944e-05
-1.24534e-05
1.15445e-05
-1.23874e-05
1.13954e-05
-1.2321e-05
1.12471e-05
-1.22543e-05
1.10996e-05
-1.21872e-05
1.09529e-05
-1.21199e-05
1.0807e-05
-1.20522e-05
1.06619e-05
-1.19842e-05
1.05177e-05
-1.19159e-05
1.03742e-05
-1.18473e-05
1.02316e-05
-1.17784e-05
1.00899e-05
-1.17092e-05
9.94895e-06
-1.16397e-05
9.80885e-06
-1.15699e-05
9.6696e-06
-1.14999e-05
9.53119e-06
-1.14295e-05
9.39363e-06
-1.13589e-05
9.25692e-06
-1.1288e-05
9.12106e-06
-1.12169e-05
8.98606e-06
-1.11454e-05
8.85192e-06
-1.10738e-05
8.71863e-06
-1.10018e-05
8.58622e-06
-1.09296e-05
8.45467e-06
-1.08572e-05
8.32398e-06
-1.07846e-05
8.19417e-06
-1.07117e-05
8.06524e-06
-1.06386e-05
7.93718e-06
-1.05652e-05
7.81e-06
-1.04917e-05
7.6837e-06
-1.04179e-05
7.55828e-06
-1.0344e-05
7.43375e-06
-1.02698e-05
7.31011e-06
-1.01955e-05
7.18735e-06
-1.01209e-05
7.06549e-06
-1.00462e-05
6.94452e-06
-9.97137e-06
6.82445e-06
-9.89634e-06
6.70527e-06
-9.82115e-06
6.587e-06
-9.74581e-06
6.46963e-06
-9.67033e-06
6.35316e-06
-9.59471e-06
6.23759e-06
-9.51896e-06
6.12294e-06
-9.44309e-06
6.00919e-06
-9.3671e-06
5.89635e-06
-9.291e-06
5.78443e-06
-9.2148e-06
5.67342e-06
-9.13851e-06
5.56333e-06
-9.06213e-06
5.45416e-06
-8.98566e-06
5.3459e-06
-8.90912e-06
5.23857e-06
-8.83251e-06
5.13217e-06
-8.75585e-06
5.02668e-06
-8.67913e-06
4.92213e-06
-8.60236e-06
4.8185e-06
-8.52555e-06
4.71581e-06
-8.44871e-06
4.61404e-06
-8.37183e-06
4.51322e-06
-8.29494e-06
4.41332e-06
-8.21803e-06
4.31437e-06
-8.14111e-06
4.21635e-06
-8.06419e-06
4.11927e-06
-7.98726e-06
4.02314e-06
-7.91034e-06
3.92795e-06
-7.83343e-06
3.83371e-06
-7.75654e-06
3.74042e-06
-7.67966e-06
3.64808e-06
-7.6028e-06
3.55669e-06
-7.52596e-06
3.46625e-06
-7.44914e-06
3.37677e-06
-7.37234e-06
3.28825e-06
-7.29556e-06
3.20069e-06
-7.2188e-06
3.11409e-06
-7.14205e-06
3.02846e-06
-7.06532e-06
2.9438e-06
-6.98858e-06
2.86011e-06
-6.91184e-06
2.77739e-06
-6.83508e-06
2.69565e-06
-6.7583e-06
2.61489e-06
-6.68147e-06
2.53512e-06
-6.60459e-06
2.45633e-06
-6.52763e-06
2.37853e-06
-6.45057e-06
2.30173e-06
-6.37338e-06
2.22592e-06
-6.29604e-06
2.15112e-06
-6.21852e-06
2.07733e-06
-6.14078e-06
2.00454e-06
-6.06278e-06
1.93278e-06
-5.98448e-06
1.86204e-06
-5.90583e-06
1.79233e-06
-5.82678e-06
1.72366e-06
-5.74727e-06
1.65602e-06
-5.66724e-06
1.58944e-06
-5.58662e-06
1.52391e-06
-5.50534e-06
1.45946e-06
-5.42332e-06
1.39607e-06
-5.34048e-06
1.33377e-06
-5.25673e-06
1.27256e-06
-5.17197e-06
1.21246e-06
-5.0861e-06
1.15348e-06
-4.99901e-06
1.09563e-06
-4.9106e-06
1.03892e-06
-4.82075e-06
9.83364e-07
-4.72933e-06
9.28985e-07
-4.63622e-06
8.75797e-07
-4.54129e-06
8.23817e-07
-4.44441e-06
7.73065e-07
-4.34545e-06
7.23561e-07
-4.24427e-06
6.75327e-07
-4.14074e-06
6.28387e-07
-4.03472e-06
5.82763e-07
-3.92609e-06
5.38484e-07
-3.81472e-06
4.95575e-07
-3.7005e-06
4.54065e-07
-3.5833e-06
4.13984e-07
-3.46304e-06
3.75362e-07
-3.33962e-06
3.38231e-07
-3.21295e-06
3.02621e-07
-3.08299e-06
2.68564e-07
-2.94968e-06
2.36092e-07
-2.813e-06
2.05233e-07
-2.67293e-06
1.7602e-07
-2.52949e-06
1.48484e-07
-2.38271e-06
1.22666e-07
-2.23264e-06
9.8616e-08
-2.07935e-06
7.64141e-08
-1.92281e-06
5.62104e-08
-1.76223e-06
3.83252e-08
-1.59394e-06
2.33524e-08
-1.40847e-06
1.20266e-08
-1.19216e-06
4.80295e-09
-9.39451e-07
1.47812e-09
-6.66878e-07
9.97711e-10
-4.10234e-07
9.92918e-10
-2.06288e-07
4.17157e-10
-7.62575e-08
-1.67189e-08
3.87892e-05
-1.71678e-05
3.8581e-05
-1.71194e-05
3.83728e-05
-1.71215e-05
3.81644e-05
-1.71229e-05
3.7956e-05
-1.71239e-05
3.77476e-05
-1.71242e-05
3.75391e-05
-1.7124e-05
3.73307e-05
-1.71233e-05
3.71222e-05
-1.7122e-05
3.69137e-05
-1.71201e-05
3.67051e-05
-1.71177e-05
3.64966e-05
-1.71148e-05
3.62881e-05
-1.71113e-05
3.60795e-05
-1.71073e-05
3.5871e-05
-1.71028e-05
3.56626e-05
-1.70977e-05
3.54541e-05
-1.70922e-05
3.52457e-05
-1.70862e-05
3.50374e-05
-1.70797e-05
3.48291e-05
-1.70727e-05
3.46209e-05
-1.70653e-05
3.44127e-05
-1.70573e-05
3.42047e-05
-1.70489e-05
3.39967e-05
-1.704e-05
3.37887e-05
-1.70306e-05
3.35809e-05
-1.70208e-05
3.33732e-05
-1.70105e-05
3.31656e-05
-1.69998e-05
3.29581e-05
-1.69886e-05
3.27507e-05
-1.6977e-05
3.25435e-05
-1.69649e-05
3.23364e-05
-1.69523e-05
3.21294e-05
-1.69393e-05
3.19226e-05
-1.69257e-05
3.1716e-05
-1.69117e-05
3.15095e-05
-1.68972e-05
3.13032e-05
-1.68821e-05
3.10971e-05
-1.68666e-05
3.08912e-05
-1.68505e-05
3.06855e-05
-1.68339e-05
3.048e-05
-1.68168e-05
3.02748e-05
-1.67991e-05
3.00698e-05
-1.67809e-05
2.9865e-05
-1.67621e-05
2.96605e-05
-1.67428e-05
2.94563e-05
-1.67229e-05
2.92523e-05
-1.67024e-05
2.90486e-05
-1.66814e-05
2.88452e-05
-1.66598e-05
2.86421e-05
-1.66376e-05
2.84393e-05
-1.66148e-05
2.82369e-05
-1.65914e-05
2.80347e-05
-1.65674e-05
2.78329e-05
-1.65428e-05
2.76315e-05
-1.65176e-05
2.74304e-05
-1.64918e-05
2.72296e-05
-1.64654e-05
2.70292e-05
-1.64384e-05
2.68291e-05
-1.64109e-05
2.66295e-05
-1.63827e-05
2.64302e-05
-1.6354e-05
2.62312e-05
-1.63247e-05
2.60327e-05
-1.62949e-05
2.58345e-05
-1.62644e-05
2.56368e-05
-1.62334e-05
2.54394e-05
-1.62019e-05
2.52425e-05
-1.61698e-05
2.5046e-05
-1.61371e-05
2.48498e-05
-1.61038e-05
2.46541e-05
-1.607e-05
2.44589e-05
-1.60357e-05
2.42641e-05
-1.60008e-05
2.40697e-05
-1.59654e-05
2.38757e-05
-1.59294e-05
2.36822e-05
-1.58929e-05
2.34892e-05
-1.58559e-05
2.32966e-05
-1.58183e-05
2.31044e-05
-1.57802e-05
2.29128e-05
-1.57417e-05
2.27216e-05
-1.57026e-05
2.25308e-05
-1.56629e-05
2.23406e-05
-1.56228e-05
2.21508e-05
-1.55822e-05
2.19616e-05
-1.55411e-05
2.17728e-05
-1.54995e-05
2.15846e-05
-1.54574e-05
2.13968e-05
-1.54149e-05
2.12095e-05
-1.53718e-05
2.10228e-05
-1.53283e-05
2.08366e-05
-1.52843e-05
2.06509e-05
-1.52398e-05
2.04657e-05
-1.51949e-05
2.02811e-05
-1.51495e-05
2.0097e-05
-1.51037e-05
1.99135e-05
-1.50574e-05
1.97305e-05
-1.50106e-05
1.95481e-05
-1.49635e-05
1.93662e-05
-1.49159e-05
1.91848e-05
-1.48678e-05
1.90041e-05
-1.48194e-05
1.88239e-05
-1.47705e-05
1.86443e-05
-1.47212e-05
1.84652e-05
-1.46715e-05
1.82868e-05
-1.46213e-05
1.81089e-05
-1.45708e-05
1.79316e-05
-1.45199e-05
1.7755e-05
-1.44685e-05
1.75789e-05
-1.44168e-05
1.74035e-05
-1.43646e-05
1.72286e-05
-1.43121e-05
1.70544e-05
-1.42591e-05
1.68808e-05
-1.42058e-05
1.67079e-05
-1.41521e-05
1.65356e-05
-1.4098e-05
1.63639e-05
-1.40434e-05
1.61929e-05
-1.39886e-05
1.60226e-05
-1.39333e-05
1.58529e-05
-1.38776e-05
1.56838e-05
-1.38216e-05
1.55155e-05
-1.37652e-05
1.53478e-05
-1.37084e-05
1.51807e-05
-1.36513e-05
1.50144e-05
-1.35937e-05
1.48488e-05
-1.35358e-05
1.46838e-05
-1.34776e-05
1.45196e-05
-1.34189e-05
1.43561e-05
-1.336e-05
1.41933e-05
-1.33006e-05
1.40312e-05
-1.32409e-05
1.38698e-05
-1.31808e-05
1.37091e-05
-1.31204e-05
1.35492e-05
-1.30596e-05
1.339e-05
-1.29984e-05
1.32316e-05
-1.29369e-05
1.30739e-05
-1.2875e-05
1.2917e-05
-1.28128e-05
1.27608e-05
-1.27502e-05
1.26054e-05
-1.26873e-05
1.24507e-05
-1.26241e-05
1.22969e-05
-1.25605e-05
1.21438e-05
-1.24965e-05
1.19914e-05
-1.24323e-05
1.18399e-05
-1.23676e-05
1.16892e-05
-1.23027e-05
1.15392e-05
-1.22374e-05
1.13901e-05
-1.21718e-05
1.12417e-05
-1.21059e-05
1.10941e-05
-1.20397e-05
1.09474e-05
-1.19731e-05
1.08015e-05
-1.19063e-05
1.06563e-05
-1.18391e-05
1.0512e-05
-1.17716e-05
1.03686e-05
-1.17038e-05
1.02259e-05
-1.16358e-05
1.00841e-05
-1.15674e-05
9.94312e-06
-1.14987e-05
9.80297e-06
-1.14298e-05
9.66365e-06
-1.13606e-05
9.52519e-06
-1.12911e-05
9.38757e-06
-1.12213e-05
9.25079e-06
-1.11513e-05
9.11487e-06
-1.10809e-05
8.97981e-06
-1.10104e-05
8.8456e-06
-1.09396e-05
8.71225e-06
-1.08685e-05
8.57977e-06
-1.07972e-05
8.44815e-06
-1.07256e-05
8.3174e-06
-1.06538e-05
8.18752e-06
-1.05818e-05
8.05851e-06
-1.05096e-05
7.93038e-06
-1.04371e-05
7.80313e-06
-1.03644e-05
7.67675e-06
-1.02915e-05
7.55126e-06
-1.02185e-05
7.42665e-06
-1.01452e-05
7.30292e-06
-1.00717e-05
7.18009e-06
-9.9981e-06
7.05814e-06
-9.92429e-06
6.93709e-06
-9.85032e-06
6.81693e-06
-9.77618e-06
6.69767e-06
-9.70188e-06
6.5793e-06
-9.62744e-06
6.46183e-06
-9.55286e-06
6.34527e-06
-9.47814e-06
6.22961e-06
-9.4033e-06
6.11485e-06
-9.32833e-06
6.001e-06
-9.25325e-06
5.88805e-06
-9.17806e-06
5.77602e-06
-9.10277e-06
5.6649e-06
-9.02739e-06
5.55469e-06
-8.95192e-06
5.4454e-06
-8.87637e-06
5.33703e-06
-8.80075e-06
5.22957e-06
-8.72506e-06
5.12304e-06
-8.64931e-06
5.01742e-06
-8.57351e-06
4.91273e-06
-8.49767e-06
4.80896e-06
-8.42178e-06
4.70612e-06
-8.34586e-06
4.60421e-06
-8.26992e-06
4.50323e-06
-8.19396e-06
4.40318e-06
-8.11798e-06
4.30406e-06
-8.04199e-06
4.20587e-06