/*--------------------------------*- C++ -*----------------------------------*\
| =========                 |                                                 |
| \\      /  F ield         | OpenFOAM: The Open Source CFD Toolbox           |
|  \\    /   O peration     | Version:  2312                                  |
|   \\  /    A nd           | Website:  www.openfoam.com                      |
|    \\/     M anipulation  |                                                 |
\*---------------------------------------------------------------------------*/
FoamFile
{
    version     2.0;
    format      ascii;
    arch        "LSB;label=32;scalar=64";
    class       volScalarField;
    location    "constant";
    object      Pkf;
}
// * * * * * * * * * * * * * * * * * * * * * * * * * * * * * * * * * * * * * //

dimensions      [0 0 0 0 0 0 0];

internalField   nonuniform List<scalar> 
154566
(
0.786657
0.81108
0.907938
0.964243
1.06905
1.09892
1.2541
1.31648
1.38121
1.41
1.39301
1.40956
1.31843
1.31549
1.29799
1.29929
1.26708
1.26558
1.27703
1.27274
1.27021
1.27583
1.2848
1.27964
1.29056
1.25825
1.31596
1.2843
1.17601
1.20876
1.26131
1.24681
1.25131
1.22913
1.23447
1.1946
1.17142
1.16156
1.18438
1.16503
1.17375
1.14807
1.2181
1.15737
1.199
1.19403
1.22673
1.1879
1.24158
1.21616
1.2908
1.24957
1.30924
1.32813
1.3286
1.35797
1.37845
1.43823
1.3936
1.44663
1.44367
1.43523
1.42021
1.43628
1.44975
1.42062
1.43678
1.43462
1.44099
1.43164
1.37431
1.3512
1.37072
1.32131
1.31584
1.26719
1.15688
1.08175
1.11521
1.06671
1.09963
1.04103
1.08249
1.0135
1.02141
0.970428
1.00196
0.904316
0.972817
0.844953
0.794093
0.622638
0.638044
0.613271
0.634827
0.628585
0.679087
0.678883
0.7064
0.753619
0.8515
0.87117
0.915213
1.00813
1.08055
1.13975
1.19414
1.22934
1.22733
1.29955
1.32191
1.32193
1.34128
1.36159
1.39274
1.42661
1.39443
1.41858
1.42994
1.45458
1.47709
1.49672
1.56157
1.54017
1.60391
1.59897
1.61865
1.63762
1.68064
1.68623
1.79738
1.73791
1.84644
1.83236
1.92308
1.92262
1.96002
1.96139
2.00199
2.00657
2.07258
2.05184
2.08229
2.0679
2.11241
2.05808
2.16669
2.20064
2.22429
2.26575
2.26797
2.30193
2.29237
2.29317
2.37138
2.35769
2.33135
2.34719
2.41294
2.34101
2.30883
2.36675
2.43917
2.37963
2.48383
2.45685
2.44669
2.35357
2.46839
2.32059
2.42127
2.24626
2.32528
2.26315
2.35854
2.24078
2.26802
2.26106
2.3118
2.25364
2.33969
2.26941
2.32787
2.34432
2.30345
2.31847
2.32581
2.43293
2.35505
2.44415
2.43409
2.58089
2.40731
2.55462
2.30587
2.45657
2.12435
2.20587
1.96181
1.96598
1.72978
1.81325
1.66807
1.63985
1.4881
1.50321
1.39398
1.4494
1.31242
1.36315
1.26962
1.31256
1.19044
1.25932
1.1379
1.22796
1.13489
1.24872
1.11464
1.26299
1.12504
1.28793
1.07839
1.26132
1.08145
1.25112
1.08186
1.27276
1.09502
1.25644
1.09036
1.25076
1.0862
1.23247
1.07541
1.20914
1.0881
1.20667
1.06957
1.19377
1.05067
1.16792
1.0224
1.15944
1.01605
1.15424
1.00841
1.14175
1.01445
1.11783
1.00852
1.12453
1.04359
1.14843
1.0308
1.13817
1.01735
1.15831
1.01562
1.17016
1.02353
1.2228
1.00747
1.19844
1.02992
1.20049
1.10894
1.18724
0.895639
0.869454
0.794625
1.13142
1.56135
1.3666
1.22914
0.988811
1.06123
1.02606
0.769764
0.829175
0.839622
0.9285
1.00906
1.02234
1.14047
1.27124
1.34057
1.39596
1.39148
1.38235
1.37036
1.30482
1.29689
1.30107
1.27468
1.27344
1.24605
1.24227
1.25724
1.26506
1.26252
1.2551
1.25493
1.29105
1.27298
1.29035
1.28139
1.21822
1.20485
1.22476
1.26943
1.25412
1.24015
1.23188
1.21904
1.16006
1.21003
1.19228
1.16635
1.11414
1.16544
1.12573
1.17992
1.16804
1.22156
1.177
1.20199
1.16886
1.25866
1.25367
1.30898
1.2589
1.28565
1.37821
1.39126
1.4093
1.42664
1.42573
1.44254
1.44173
1.45384
1.43709
1.45141
1.43444
1.45869
1.44598
1.45797
1.43393
1.41707
1.41152
1.37833
1.38359
1.35166
1.29081
1.25147
1.22108
1.14427
1.12064
1.10121
1.06573
1.09112
1.05092
1.06418
0.997298
1.04302
0.961786
0.993233
0.916833
0.922535
0.713033
0.657927
0.609635
0.636231
0.619573
0.651486
0.64551
0.669831
0.660368
0.735702
0.750273
0.797617
0.878735
0.975313
1.00334
1.06592
1.06776
1.17995
1.18968
1.24539
1.24016
1.27038
1.3222
1.32064
1.37046
1.39134
1.40129
1.39289
1.44445
1.47327
1.48133
1.51988
1.55574
1.5806
1.56787
1.62138
1.62708
1.70041
1.68495
1.7359
1.72769
1.81965
1.80242
1.91152
1.90487
1.92828
1.95329
1.99789
1.98105
2.0656
2.05444
2.09944
2.07381
2.13765
2.09646
2.16348
2.20354
2.25045
2.34453
2.36654
2.31867
2.34986
2.31849
2.34174
2.36274
2.35205
2.35631
2.36522
2.34298
2.38648
2.37064
2.39751
2.3981
2.40947
2.38456
2.33418
2.35897
2.30937
2.30911
2.3056
2.17107
2.23831
2.1551
2.16096
2.1035
2.07574
2.06695
2.08109
2.12
2.16147
2.14226
2.16381
2.24883
2.18658
2.21433
2.28561
2.21891
2.35528
2.2427
2.20497
2.42229
2.3658
2.34461
2.28063
2.3157
2.2409
2.0998
2.06767
2.03625
1.92266
1.85246
1.7952
1.62141
1.52968
1.48356
1.42624
1.47348
1.41117
1.35591
1.32453
1.34924
1.28039
1.29639
1.25412
1.28036
1.23885
1.29051
1.2518
1.29982
1.24078
1.30254
1.25343
1.28212
1.2673
1.28926
1.24423
1.2957
1.24921
1.30366
1.25299
1.29918
1.24212
1.30143
1.2488
1.29057
1.23238
1.31463
1.25676
1.30953
1.23538
1.31611
1.22406
1.30657
1.2168
1.29053
1.20237
1.27404
1.18857
1.27288
1.19959
1.26179
1.16997
1.23707
1.20537
1.22377
1.20081
1.22804
1.19354
1.23269
1.21258
1.24033
1.19385
1.23286
1.17593
1.22207
1.16609
1.20343
1.03856
0.905482
0.887103
0.913911
1.34159
1.29041
1.31489
0.920952
0.88151
0.979994
0.95538
0.574126
0.936769
0.843539
0.892883
1.00059
1.16365
1.16978
1.24673
1.33307
1.34904
1.38862
1.37643
1.32327
1.28423
1.29717
1.26716
1.25588
1.25867
1.26392
1.24726
1.26198
1.24645
1.26875
1.26389
1.27021
1.25135
1.29982
1.30272
1.28943
1.27332
1.25783
1.26101
1.27293
1.27486
1.28306
1.28231
1.26555
1.24645
1.2293
1.23842
1.19589
1.22079
1.15262
1.21395
1.134
1.20549
1.19168
1.27679
1.22103
1.27966
1.23309
1.26113
1.30403
1.2938
1.31524
1.36017
1.37728
1.43507
1.43162
1.46542
1.45918
1.44339
1.41481
1.46771
1.46089
1.43846
1.43448
1.44865
1.45473
1.43761
1.4206
1.40083
1.38087
1.41723
1.3782
1.33399
1.27237
1.27037
1.14161
1.13825
1.0966
1.08116
1.06418
1.07684
1.01681
1.03431
1.01697
1.04285
0.959606
0.990974
0.871616
0.775162
0.652303
0.63346
0.608713
0.655962
0.625108
0.665564
0.660456
0.691087
0.703503
0.739014
0.781522
0.885509
0.952125
0.99743
1.0256
1.09232
1.16497
1.21152
1.20409
1.24601
1.27429
1.29135
1.34124
1.35872
1.40048
1.35791
1.39558
1.43327
1.44804
1.45929
1.50437
1.53207
1.54809
1.57103
1.58048
1.6318
1.62121
1.67122
1.69947
1.72313
1.70302
1.81967
1.81111
1.8765
1.86996
1.92456
1.9305
1.9972
1.97592
2.04418
2.0005
2.06432
2.04144
2.13457
2.13178
2.15788
2.16591
2.3035
2.23828
2.27823
2.30687
2.33183
2.32563
2.29799
2.3363
2.30312
2.27511
2.32193
2.36226
2.28331
2.25432
2.28534
2.30397
2.26773
2.25834
2.32373
2.2776
2.28978
2.20743
2.21799
2.13284
2.16656
2.07357
2.18402
2.10909
2.11708
2.11514
2.10858
2.11097
2.10126
2.1473
2.22976
2.20323
2.30893
2.26093
2.33309
2.33393
2.39345
2.32425
2.42345
2.43362
2.50733
2.42885
2.45515
2.37603
2.21948
2.23318
2.24011
1.99645
1.99758
1.86718
1.73953
1.63067
1.57199
1.55128
1.51157
1.45922
1.3959
1.40992
1.37835
1.30891
1.26735
1.2633
1.25287
1.23627
1.27124
1.27803
1.28666
1.31226
1.30918
1.2936
1.31187
1.30188
1.30546
1.3034
1.31817
1.30778
1.31407
1.30124
1.30597
1.30141
1.29795
1.31357
1.314
1.304
1.30573
1.3108
1.3
1.33088
1.31888
1.30657
1.31695
1.29567
1.30221
1.28736
1.2834
1.27918
1.28866
1.26952
1.29553
1.26153
1.25379
1.2473
1.2287
1.23396
1.22289
1.23855
1.23774
1.23866
1.2197
1.24018
1.20143
1.20667
1.17933
1.20928
1.18752
1.2178
0.881229
0.885078
0.785918
1.13471
1.50457
1.15752
1.0333
0.757179
0.962991
1.13785
0.560733
0.847769
0.799964
0.939336
1.03833
1.1012
1.18987
1.25103
1.33064
1.3228
1.35505
1.35174
1.2813
1.27346
1.27324
1.25875
1.24454
1.26761
1.25575
1.26192
1.24261
1.25131
1.26375
1.25543
1.25891
1.25585
1.26871
1.27584
1.26023
1.31147
1.26045
1.26866
1.28426
1.2922
1.28458
1.27799
1.30174
1.25318
1.25776
1.23215
1.22153
1.21339
1.23106
1.17045
1.20375
1.13902
1.21459
1.15473
1.24054
1.19005
1.21458
1.22743
1.25834
1.30344
1.33043
1.339
1.39658
1.3923
1.42525
1.46484
1.46373
1.44971
1.49587
1.43662
1.4661
1.45954
1.46778
1.44215
1.47025
1.42752
1.39855
1.41808
1.41755
1.40115
1.42164
1.34415
1.25976
1.25893
1.2429
1.12052
1.10064
1.07933
1.07249
1.0522
1.05201
1.02746
1.05613
1.00426
1.0066
0.933318
0.945875
0.807724
0.730479
0.64229
0.635594
0.659927
0.668357
0.668052
0.674556
0.683444
0.716486
0.743556
0.788372
0.853158
0.871685
0.940458
1.01403
1.05826
1.09791
1.15533
1.20162
1.25686
1.27118
1.29864
1.33781
1.33953
1.33905
1.39046
1.39847
1.43022
1.42568
1.4612
1.49617
1.52716
1.55326
1.57185
1.59689
1.6149
1.65695
1.65679
1.68807
1.69117
1.73272
1.74139
1.79464
1.77706
1.87687
1.8763
1.91726
1.90493
1.98526
1.98318
2.02293
1.98749
2.10342
2.08866
2.12078
2.13198
2.19768
2.22428
2.28447
2.23119
2.24895
2.28949
2.32902
2.3494
2.31033
2.32037
2.32518
2.32767
2.34362
2.2938
2.30362
2.28342
2.32231
2.25353
2.2599
2.278
2.18439
2.114
2.17686
2.12035
2.12353
2.05144
2.14528
2.09598
2.08846
2.04471
2.12555
2.0722
2.05461
2.06085
2.11794
2.13305
2.17943
2.19096
2.26869
2.24886
2.31476
2.22134
2.23462
2.19603
2.24559
2.29194
2.27946
2.27004
2.18338
2.05963
2.05659
2.00925
1.87229
1.79751
1.77747
1.61513
1.52649
1.48162
1.41944
1.39091
1.38483
1.34894
1.31932
1.3315
1.26762
1.26485
1.24269
1.23679
1.24218
1.25455
1.2409
1.25452
1.23574
1.2789
1.22839
1.29359
1.22679
1.27035
1.21283
1.27068
1.21466
1.28579
1.21451
1.29242
1.22108
1.29158
1.20813
1.2961
1.22753
1.28554
1.21516
1.2976
1.19674
1.29661
1.19432
1.2788
1.19581
1.28226
1.18178
1.29281
1.17486
1.28612
1.18838
1.27613
1.17434
1.23396
1.18263
1.2279
1.17716
1.23963
1.18794
1.2475
1.20538
1.23732
1.1861
1.21136
1.1804
1.20178
1.1912
1.2223
1.05812
0.982768
0.888173
0.824993
1.18203
1.26364
1.2543
0.82236
0.779741
0.878984
1.38834
0.647436
0.787348
0.852655
0.966467
1.00779
1.04052
1.12222
1.2564
1.30468
1.34549
1.33951
1.36451
1.26919
1.29816
1.26919
1.24913
1.25571
1.22085
1.24467
1.26616
1.25662
1.25258
1.27075
1.2608
1.24281
1.26613
1.2829
1.26301
1.296
1.28791
1.25515
1.26164
1.27849
1.29485
1.30682
1.28513
1.27585
1.25326
1.25106
1.23313
1.21973
1.2228
1.2217
1.23654
1.2023
1.19584
1.14266
1.22315
1.19521
1.2385
1.22457
1.23883
1.26334
1.26777
1.33591
1.32961
1.37576
1.42175
1.4434
1.44653
1.47716
1.49372
1.46974
1.50189
1.45603
1.47401
1.47327
1.46798
1.4572
1.46552
1.42571
1.42908
1.43802
1.38719
1.39853
1.36529
1.27242
1.26213
1.24974
1.15645
1.09612
1.10384
1.06494
1.07246
1.03186
1.04406
1.04835
1.06478
0.98359
0.980866
0.910159
0.867195
0.693443
0.701414
0.649265
0.651073
0.634377
0.671469
0.683622
0.681672
0.705989
0.736193
0.778734
0.831395
0.87414
0.989408
1.01305
1.06253
1.11411
1.17479
1.21654
1.23429
1.27636
1.28567
1.32118
1.31661
1.36118
1.35946
1.38088
1.45171
1.43072
1.45714
1.46938
1.48143
1.5188
1.55352
1.55447
1.61907
1.59914
1.63638
1.65073
1.65811
1.6821
1.76065
1.76737
1.78736
1.76202
1.83689
1.85597
1.90422
1.89681
1.94666
1.9194
1.98774
2.01948
2.0374
2.0509
2.08934
2.07856
2.15708
2.18902
2.21696
2.17527
2.28035
2.24318
2.34148
2.30252
2.27399
2.27914
2.27369
2.3055
2.30733
2.3465
2.29294
2.24708
2.29627
2.27258
2.22867
2.19379
2.18209
2.11397
2.15021
2.06753
2.11422
2.06458
2.12627
2.04612
2.06704
2.08086
2.09018
2.05395
2.07849
2.06402
2.14852
2.10367
2.18381
2.20395
2.2451
2.28033
2.31171
2.26995
2.29346
2.26026
2.3077
2.2218
2.39339
2.27191
2.24445
2.14524
2.14934
1.96224
1.98975
1.89136
1.77482
1.64416
1.60962
1.52169
1.54136
1.42474
1.39591
1.37969
1.31222
1.31974
1.25984
1.2396
1.21406
1.29651
1.2343
1.27342
1.27023
1.29413
1.29208
1.32407
1.2969
1.30829
1.31003
1.34827
1.30601
1.32712
1.31168
1.30314
1.32057
1.35016
1.30893
1.35121
1.31328
1.33955
1.28193
1.33695
1.32261
1.34727
1.30138
1.34389
1.27825
1.30043
1.29539
1.32855
1.29618
1.27444
1.26323
1.33155
1.24534
1.28775
1.22247
1.2263
1.21166
1.23988
1.2119
1.26203
1.21296
1.25267
1.20959
1.24499
1.1702
1.20977
1.15341
1.20663
1.18566
1.19313
0.88775
0.978618
0.847076
1.13686
1.52179
1.2296
1.063
0.925612
1.11995
1.07953
0.797565
0.837873
0.790607
0.939272
1.02515
1.04168
1.12608
1.23613
1.30539
1.32123
1.32286
1.32299
1.26375
1.2586
1.26978
1.25925
1.24031
1.23003
1.21105
1.2404
1.22955
1.23574
1.25782
1.24817
1.26165
1.27287
1.24326
1.26702
1.27995
1.27373
1.27617
1.26551
1.27146
1.29106
1.30135
1.29549
1.28071
1.27578
1.26134
1.25715
1.24804
1.22371
1.22151
1.24183
1.24109
1.14899
1.20251
1.19145
1.23106
1.20963
1.22492
1.21448
1.2437
1.29942
1.30688
1.34823
1.3854
1.38159
1.45647
1.44001
1.49594
1.51851
1.51854
1.49466
1.50851
1.48009
1.4898
1.4713
1.48791
1.45712
1.45348
1.42543
1.42517
1.38297
1.38714
1.35251
1.29601
1.24231
1.23437
1.18662
1.12726
1.10672
1.08002
1.06786
1.04441
1.06865
1.08089
1.03886
1.00731
0.950695
0.989494
0.806909
0.742624
0.692681
0.707464
0.648052
0.661054
0.670938
0.672997
0.669912
0.699075
0.731934
0.796012
0.868478
0.937711
0.975017
1.04624
1.07186
1.153
1.20248
1.21801
1.22223
1.28018
1.29979
1.29248
1.3129
1.33583
1.39333
1.38625
1.40306
1.43198
1.4484
1.45325
1.46321
1.50994
1.49483
1.56027
1.55247
1.60932
1.59707
1.6265
1.63203
1.704
1.69575
1.74032
1.70844
1.80115
1.76768
1.81026
1.78502
1.83971
1.86765
1.88583
1.85372
1.98764
1.9855
1.99505
1.97312
2.05466
2.05026
2.09896
2.08992
2.14264
2.18067
2.19449
2.19421
2.25199
2.25899
2.27787
2.2324
2.27852
2.30793
2.2918
2.25608
2.32454
2.33582
2.31248
2.31713
2.26817
2.25444
2.21848
2.17009
2.17894
2.11847
2.13025
2.15048
2.12861
2.09424
2.15161
2.11303
2.08864
2.09563
2.06794
2.05992
2.14184
2.03972
2.15199
2.19079
2.22488
2.24331
2.21889
2.28972
2.25475
2.2932
2.29631
2.22901
2.29151
2.21626
2.21992
2.04768
1.91628
1.91665
1.86587
1.78012
1.69208
1.58263
1.59258
1.51867
1.48516
1.37704
1.40136
1.30834
1.32386
1.23465
1.22702
1.20942
1.24053
1.22606
1.25462
1.26057
1.26705
1.26592
1.25792
1.2779
1.26017
1.28454
1.2575
1.29979
1.24626
1.27303
1.23306
1.28248
1.23259
1.28952
1.23063
1.29147
1.22497
1.30376
1.22224
1.30828
1.20717
1.30261
1.20356
1.30247
1.18964
1.28955
1.18575
1.27837
1.14425
1.27564
1.14523
1.27555
1.15635
1.26487
1.15716
1.23526
1.15099
1.23847
1.18162
1.25067
1.16923
1.22421
1.16641
1.19041
1.15106
1.20867
1.16302
1.219
1.16367
1.07672
0.865414
0.791907
1.28189
1.35484
1.3143
0.9525
0.821659
1.00343
1.04805
0.698157
0.877476
0.834081
0.951636
0.994837
1.08236
1.18833
1.28811
1.30435
1.33651
1.33604
1.31417
1.29034
1.25461
1.22661
1.26627
1.22969
1.23043
1.2356
1.20757
1.22399
1.22764
1.22895
1.25959
1.2491
1.2535
1.25854
1.27679
1.29087
1.28637
1.31226
1.23892
1.2621
1.27585
1.30518
1.30357
1.34751
1.30635
1.33224
1.28937
1.29915
1.27763
1.27088
1.27033
1.26174
1.27468
1.18926
1.21512
1.22901
1.24467
1.26091
1.29305
1.27059
1.35086
1.38004
1.38854
1.40906
1.4412
1.44564
1.46661
1.48302
1.53328
1.51249
1.53934
1.5203
1.50882
1.46461
1.50102
1.47821
1.4853
1.47134
1.44748
1.43795
1.4317
1.39472
1.43099
1.32715
1.2896
1.26791
1.2422
1.13379
1.10467
1.08735
1.07786
1.05429
1.09033
1.08231
1.09289
1.00575
1.0178
0.925269
0.883929
0.724147
0.718492
0.688909
0.694986
0.644692
0.667145
0.685523
0.704693
0.701145
0.745037
0.790654
0.824728
0.845494
0.908972
0.939605
0.988965
1.04794
1.13667
1.19267
1.21452
1.25003
1.2567
1.32834
1.32199
1.31951
1.33327
1.3607
1.38087
1.4441
1.44734
1.45771
1.50465
1.482
1.55568
1.55295
1.58231
1.58509
1.63252
1.61764
1.67562
1.70677
1.71569
1.69707
1.73333
1.74719
1.78722
1.7609
1.82868
1.79495
1.87016
1.87878
1.98293
1.94686
1.98744
1.9645
2.04423
1.99771
2.07096
2.09946
2.16089
2.12384
2.18582
2.12396
2.24569
2.17143
2.26173
2.22043
2.26169
2.19132
2.2881
2.236
2.27421
2.20326
2.19197
2.22518
2.18668
2.13356
2.14141
2.08644
2.07615
2.06191
2.07516
2.00872
2.0485
1.99358
1.96782
1.9892
2.04391
1.96763
2.03491
1.98731
2.1471
2.01714
2.13268
2.05598
2.0866
2.14373
2.15768
2.18999
2.20562
2.24335
2.25365
2.22985
2.24735
2.09861
2.13169
2.11046
2.00507
1.91195
1.86006
1.78651
1.68404
1.57384
1.52288
1.50991
1.44567
1.42756
1.36347
1.35595
1.33419
1.32491
1.26695
1.23124
1.2307
1.24761
1.21423
1.2631
1.26076
1.30585
1.26529
1.30102
1.27253
1.31008
1.2656
1.32539
1.27583
1.32331
1.28246
1.33019
1.27312
1.33488
1.26892
1.32748
1.26477
1.32674
1.2584
1.32443
1.26186
1.3218
1.24846
1.31735
1.22799
1.30493
1.22592
1.29626
1.20154
1.28417
1.2027
1.28305
1.18992
1.26596
1.19432
1.23633
1.20909
1.24277
1.22438
1.25125
1.23464
1.23099
1.21466
1.22291
1.18372
1.21939
1.13853
1.17273
1.15733
1.18188
0.898298
0.879782
0.831872
1.1766
1.43968
1.17361
1.07235
0.805326
1.13316
1.01182
0.590279
0.793189
0.820608
0.974338
1.00861
1.17344
1.18524
1.28432
1.32994
1.29264
1.30894
1.25129
1.32124
1.25506
1.24723
1.21663
1.25481
1.24112
1.22107
1.21082
1.21174
1.24528
1.22436
1.25854
1.2391
1.23867
1.2575
1.25592
1.26836
1.28509
1.28909
1.24084
1.24072
1.27446
1.27258
1.32397
1.33109
1.34723
1.3338
1.33139
1.31172
1.30708
1.31988
1.29256
1.31591
1.29194
1.31354
1.2162
1.27864
1.25787
1.25302
1.29736
1.32817
1.36466
1.38215
1.40872
1.43818
1.47792
1.46414
1.51229
1.5211
1.54756
1.55895
1.536
1.52268
1.49972
1.47928
1.50336
1.5065
1.50674
1.47563
1.48778
1.45109
1.44229
1.4375
1.39634
1.35366
1.3022
1.27779
1.27446
1.16834
1.10526
1.13155
1.09971
1.08751
1.08064
1.11129
1.07923
1.05432
0.973762
0.982817
0.857778
0.829749
0.723412
0.698269
0.692977
0.67328
0.66327
0.67932
0.688071
0.711345
0.716445
0.757045
0.772424
0.802104
0.84494
0.928149
0.975775
1.09256
1.13136
1.13208
1.22083
1.2601
1.28797
1.30433
1.33809
1.32161
1.32733
1.37986
1.37872
1.41745
1.46855
1.46302
1.47358
1.50264
1.52147
1.56086
1.54712
1.57357
1.5741
1.62451
1.64498
1.68398
1.67123
1.7104
1.71714
1.74529
1.7478
1.76882
1.76398
1.81782
1.83687
1.90135
1.86519
1.93819
1.8989
1.9546
1.92799
1.97977
1.99317
2.06485
2.01229
2.11598
2.1052
2.1729
2.09912
2.17248
2.15413
2.18752
2.18337
2.22269
2.15845
2.25188
2.121
2.22661
2.13609
2.19108
2.15032
2.17213
2.08594
2.09422
2.04808
2.09234
2.00764
2.02276
1.98289
1.9602
1.95827
2.02587
1.95424
2.02629
1.9775
2.04427
1.9873
2.10247
2.02697
2.07776
2.03787
2.13011
2.13583
2.10847
2.14999
2.19622
2.24343
2.25509
2.24105
2.18805
2.17391
2.09663
2.04412
1.94181
1.88633
1.78706
1.64895
1.57306
1.48888
1.48895
1.45175
1.42821
1.3126
1.31796
1.31192
1.29022
1.24203
1.2187
1.20185
1.21929
1.23019
1.24875
1.25152
1.28062
1.29584
1.25508
1.30423
1.24859
1.305
1.25527
1.32116
1.26961
1.30637
1.25805
1.31121
1.2573
1.31628
1.26389
1.32099
1.25892
1.31583
1.25702
1.32016
1.24604
1.31129
1.23423
1.30464
1.21605
1.29628
1.20866
1.2776
1.19654
1.27113
1.19144
1.26159
1.21092
1.22724
1.21363
1.24095
1.21558
1.24642
1.2247
1.23914
1.24275
1.234
1.2019
1.20357
1.16289
1.18334
1.1763
1.17892
1.15006
1.02564
0.843048
0.797422
1.21728
1.37072
1.20027
0.865453
0.828139
0.98117
1.2901
0.527082
0.791134
0.816458
1.00482
1.03321
1.16933
1.2763
1.26385
1.34298
1.33478
1.33714
1.30162
1.25871
1.26697
1.19997
1.22383
1.23713
1.24866
1.20927
1.21601
1.24984
1.2295
1.22427
1.23555
1.23712
1.27378
1.27723
1.26803
1.27376
1.28717
1.30642
1.32348
1.24983
1.28189
1.32615
1.30618
1.37445
1.3567
1.35966
1.35321
1.35054
1.31572
1.29386
1.335
1.34494
1.3353
1.33579
1.34347
1.33552
1.31917
1.32875
1.30016
1.36108
1.39653
1.42123
1.46752
1.50186
1.46732
1.50908
1.51098
1.54307
1.54428
1.57829
1.56933
1.53493
1.52141
1.5048
1.49887
1.53464
1.50546
1.50476
1.49402
1.4581
1.45041
1.48098
1.44972
1.39572
1.33261
1.29622
1.26731
1.24964
1.1337
1.11605
1.12176
1.07198
1.1157
1.10001
1.12204
0.995524
1.05619
0.978197
0.962056
0.835741
0.783726
0.71169
0.764695
0.715799
0.693253
0.706831
0.702601
0.749628
0.762181
0.76739
0.805158
0.795724
0.876316
0.91728
0.970657
1.01906
1.02265
1.11616
1.22626
1.18852
1.26698
1.26741
1.31832
1.32767
1.33477
1.32665
1.33229
1.37989
1.42256
1.47528
1.48094
1.4898
1.52188
1.55688
1.58295
1.56288
1.60551
1.61594
1.67153
1.67047
1.68671
1.67218
1.69432
1.70536
1.76424
1.74195
1.77861
1.78764
1.84561
1.83446
1.91072
1.83364
1.92579
1.859
1.93414
1.87889
1.96946
1.9105
1.96792
1.95718
2.03627
1.99761
2.06164
2.03047
2.09445
2.02727
2.0668
2.08272
2.09699
2.03893
2.09414
2.01688
2.08933
2.05298
2.10526
1.99992
2.06469
2.00966
2.02939
1.97277
2.02427
1.91677
1.93509
1.89894
1.9303
1.90177
1.99326
1.98676
2.00452
2.00571
2.00737
2.10358
2.0644
2.07547
2.09529
2.05361
2.09076
2.08386
2.03613
2.05091
2.01131
1.99213
2.01911
2.02806
2.00792
1.86941
1.81921
1.7442
1.68229
1.70117
1.53881
1.50572
1.4489
1.45466
1.39646
1.37297
1.31463
1.30043
1.25006
1.21289
1.20501
1.20141
1.18541
1.21649
1.19386
1.23158
1.19602
1.24882
1.16874
1.25034
1.18559
1.25448
1.16706
1.2501
1.18272
1.25143
1.17988
1.25383
1.14837
1.25563
1.15884
1.27374
1.16479
1.26885
1.15447
1.28258
1.15129
1.28401
1.13613
1.2408
1.09678
1.23308
1.08551
1.22718
1.08145
1.22531
1.07296
1.23442
1.06518
1.22529
1.12562
1.22769
1.14225
1.25503
1.13812
1.23769
1.15582
1.24486
1.15801
1.23868
1.12455
1.21439
1.13936
1.18654
1.11283
1.10218
0.843234
0.854111
0.797225
1.03883
1.36028
1.16235
0.977224
0.851569
1.02134
1.17706
0.721318
0.910123
0.767363
0.973277
1.0835
1.09344
1.24472
1.34682
1.36508
1.37088
1.34784
1.35595
1.2996
1.27324
1.2573
1.23221
1.24931
1.1967
1.24099
1.25231
1.27235
1.25254
1.22715
1.24345
1.26099
1.24985
1.29654
1.28265
1.3022
1.3677
1.38025
1.41363
1.29027
1.31303
1.32688
1.34894
1.34979
1.38697
1.37961
1.39143
1.34927
1.37973
1.34879
1.38955
1.33148
1.39386
1.36843
1.39587
1.34216
1.40007
1.37415
1.39098
1.38981
1.41303
1.3916
1.47745
1.48828
1.52798
1.51642
1.54352
1.52868
1.53896
1.55684
1.57092
1.57256
1.53009
1.58099
1.54608
1.56767
1.56528
1.53688
1.50916
1.49018
1.4812
1.48033
1.44544
1.45951
1.38933
1.30458
1.3019
1.29701
1.17528
1.12228
1.13261
1.09861
1.11964
1.13586
1.09883
1.115
1.02357
1.04567
0.986615
0.884244
0.803119
0.772009
0.750983
0.754951
0.742698
0.718239
0.746323
0.751727
0.76828
0.788526
0.800022
0.859139
0.887885
0.923834
0.995207
0.991736
1.09453
1.1501
1.18752
1.19355
1.24763
1.25846
1.31955
1.32424
1.32018
1.31029
1.35009
1.37585
1.4003
1.39504
1.4542
1.48793
1.4603
1.46791
1.44769
1.51845
1.51813
1.56035
1.54649
1.64748
1.61093
1.66451
1.61869
1.68922
1.65632
1.67972
1.67213
1.70504
1.73408
1.7672
1.76654
1.79684
1.784
1.84457
1.79539
1.82984
1.81164
1.85042
1.83531
1.89821
1.8786
1.94792
1.96242
1.9966
2.00125
2.0702
2.0413
2.12623
2.10174
2.17312
2.11675
2.20481
2.10179
2.1815
2.15122
2.21266
2.13395
2.18558
2.15841
2.14326
2.16299
2.09748
2.08548
2.07119
2.0814
2.07005
2.09317
2.06515
2.09376
2.00674
2.10771
2.15208
2.0791
2.06153
2.0751
2.16051
2.17426
2.14992
2.15258
2.23353
2.15023
2.13041
2.14262
2.0962
2.02834
1.9218
1.91992
1.81346
1.80819
1.75234
1.72803
1.58285
1.53013
1.50827
1.48452
1.39725
1.3812
1.32363
1.26428
1.25987
1.21294
1.21904
1.2053
1.20088
1.22615
1.18824
1.2569
1.19596
1.27074
1.17574
1.26942
1.19288
1.26848
1.16033
1.28341
1.17161
1.25816
1.1812
1.24906
1.12788
1.24182
1.12885
1.25055
1.11682
1.26139
1.09911
1.25231
1.10106
1.24165
1.08952
1.23374
1.04248
1.22867
1.04143
1.2225
1.03831
1.22574
1.03804
1.22442
1.03782
1.20883
1.01231
1.19906
1.07163
1.20945
1.06672
1.18531
1.08232
1.1753
1.08572
1.19813
1.09403
1.19963
1.12313
1.2119
1.16502
1.06499
0.852307
0.737852
1.26139
1.348
1.27522
1.05288
0.920432
0.959607
1.02102
0.834731
0.881176
0.805349
0.940441
1.05581
1.12938
1.24667
1.31702
1.37078
1.41278
1.39062
1.30667
1.32465
1.2814
1.26084
1.24159
1.21648
1.22463
1.20932
1.24239
1.25225
1.24374
1.23328
1.23017
1.26117
1.28654
1.30538
1.31647
1.31481
1.33564
1.38424
1.36396
1.25292
1.25448
1.33024
1.34606
1.37766
1.37729
1.40675
1.37863
1.43401
1.38826
1.38435
1.37978
1.40488
1.35458
1.39816
1.38054
1.35901
1.38091
1.39336
1.3808
1.39578
1.40882
1.43017
1.46187
1.50306
1.50142
1.52371
1.51118
1.51969
1.563
1.54777
1.59281
1.61363
1.58275
1.56804
1.58937
1.5578
1.57094
1.53706
1.52001
1.51627
1.48581
1.49542
1.4647
1.48398
1.41247
1.35921
1.27178
1.28308
1.18817
1.1118
1.14133
1.12317
1.14467
1.13389
1.16186
1.11101
1.08668
1.03765
1.05097
0.931765
0.885289
0.790278
0.819223
0.770693
0.813811
0.795701
0.790751
0.806186
0.866177
0.880408
0.920485
0.955744
0.994913
0.992307
1.01326
1.01456
1.02552
1.02144
1.0531
1.05021
1.04069
1.06638
1.06677
1.06798
1.08595
1.06734
1.0918
1.06743
1.10767
1.12757
1.23318
1.30955
1.40783
1.48792
1.49389
1.50607
1.55318
1.54748
1.54847
1.63001
1.63638
1.62683
1.67096
1.6624
1.70018
1.66964
1.69329
1.72169
1.80701
1.7693
1.82279
1.79065
1.8718
1.78297
1.87075
1.80315
1.8833
1.83784
1.86585
1.83177
1.93499
1.88705
1.98706
1.91706
1.9805
1.99245
2.05037
2.02848
2.10568
2.06486
2.10616
2.03556
2.06567
2.06544
2.14163
2.0047
2.06897
2.06904
2.02947
1.9684
2.0009
1.93683
2.00194
1.93773
1.98473
1.95792
2.0115
1.94231
2.01378
1.95631
2.0191
1.99149
2.05002
1.94822
2.00549
2.00451
2.04274
2.03645
2.04097
2.01353
2.00445
2.03908
2.00306
1.99456
1.99817
1.97667
1.95364
1.80466
1.8515
1.76828
1.68726
1.55136
1.52118
1.4742
1.43855
1.4068
1.34328
1.3189
1.26219
1.24369
1.20346
1.23271
1.18756
1.22909
1.21216
1.24967
1.23675
1.27124
1.25871
1.28641
1.2694
1.30078
1.28055
1.31124
1.30555
1.31996
1.29868
1.31571
1.32349
1.329
1.3231
1.33586
1.32949
1.33629
1.31977
1.34521
1.29108
1.34989
1.31855
1.33413
1.26808
1.32005
1.29455
1.29804
1.29909
1.29814
1.29278
1.29429
1.27476
1.2492
1.22601
1.23879
1.22992
1.24609
1.22014
1.24738
1.22359
1.22573
1.21591
1.19337
1.16025
1.17727
1.15468
1.18922
1.16307
1.18655
0.895394
0.869651
0.890017
1.17984
1.35008
1.10498
1.02078
0.838756
1.12127
1.00985
0.635715
0.979523
0.798737
0.994592
1.03103
1.17962
1.27966
1.3584
1.35177
1.38627
1.41654
1.33508
1.30461
1.26809
1.31014
1.28704
1.25425
1.23075
1.24361
1.23972
1.29596
1.23982
1.24504
1.26298
1.28856
1.2829
1.34796
1.3483
1.31495
1.34616
1.40349
1.41418
1.27105
1.28388
1.28774
1.3458
1.32343
1.36214
1.38112
1.41405
1.41832
1.41513
1.39244
1.42625
1.3964
1.42408
1.39442
1.41388
1.35125
1.37304
1.40248
1.40458
1.40144
1.38912
1.48007
1.48015
1.5311
1.57361
1.55688
1.55235
1.52731
1.53915
1.60953
1.58314
1.63375
1.60334
1.57945
1.58379
1.58322
1.54033
1.5678
1.56246
1.53934
1.53707
1.4999
1.51669
1.49621
1.452
1.36911
1.30599
1.31633
1.31952
1.2294
1.18565
1.17374
1.20975
1.2231
1.26474
1.25059
1.21534
1.18079
1.18661
1.07696
0.976184
0.967791
1.00682
0.986811
0.993717
0.985107
1.00393
1.00305
0.998793
1.02231
1.01265
1.05611
1.03229
1.07467
1.04014
1.08855
1.11361
1.05297
1.03987
1.07819
1.09939
1.139
1.11367
1.11017
1.15192
1.13648
1.15188
1.15701
1.22238
1.1857
1.29971
1.18185
1.29887
1.19922
1.32619
1.23562
1.31339
1.26852
1.32585
1.28835
1.36756
1.38311
1.35671
1.39928
1.3567
1.41185
1.35924
1.46779
1.48913
1.61181
1.75223
1.75933
1.76737
1.81821
1.74738
1.84335
1.75385
1.87134
1.83055
1.8767
1.82808
1.91151
1.84965
1.906
1.92178
1.95278
1.92194
1.96743
1.98418
2.03666
1.9831
2.02724
2.01231
2.04229
2.0376
2.00636
1.95913
2.0317
1.95308
2.00509
1.92669
1.96927
1.96602
1.98023
1.90568
1.99511
1.94571
2.00084
1.952
1.96913
1.94045
2.00753
1.93394
1.97572
1.95927
2.0214
1.98346
2.0117
1.99054
2.00705
2.02616
2.03926
2.00803
1.9599
1.98371
1.95576
1.8632
1.84852
1.79125
1.73527
1.6216
1.54387
1.56529
1.53221
1.39675
1.42005
1.34151
1.33455
1.25881
1.20965
1.20892
1.21203
1.21117
1.19044
1.20614
1.21911
1.24168
1.25815
1.27974
1.24686
1.27934
1.27104
1.28036
1.28352
1.29378
1.29769
1.2886
1.29491
1.30245
1.32273
1.31712
1.30218
1.32141
1.30898
1.32008
1.32759
1.33112
1.32308
1.31247
1.25676
1.29883
1.30305
1.30565
1.30054
1.29019
1.29053
1.27713
1.27923
1.28068
1.24809
1.23414
1.22823
1.23599
1.22463
1.24031
1.22445
1.23367
1.20929
1.20273
1.17666
1.19108
1.15374
1.17149
1.1665
1.20274
1.18637
1.04735
0.875487
0.870542
1.31427
1.2676
1.15374
0.926099
0.821361
1.00953
1.35791
0.689418
0.847269
0.806867
0.999705
1.14665
1.16183
1.31069
1.37761
1.43284
1.39945
1.39656
1.3242
1.32313
1.30671
1.29956
1.31044
1.29101
1.28698
1.25885
1.29798
1.22986
1.23989
1.27684
1.26905
1.24976
1.30974
1.31927
1.37019
1.33893
1.32771
1.38848
1.41694
1.43277
1.28127
1.3044
1.31344
1.35708
1.35954
1.3884
1.38275
1.44641
1.42257
1.45031
1.43776
1.43998
1.38558
1.4424
1.42375
1.41398
1.42247
1.36818
1.38879
1.43758
1.47382
1.47761
1.52729
1.49825
1.55636
1.54482
1.54739
1.53933
1.57295
1.59409
1.6412
1.60886
1.64449
1.63134
1.61295
1.62917
1.59386
1.61115
1.58898
1.58733
1.56133
1.5591
1.52974
1.53435
1.52219
1.43546
1.42386
1.43444
1.40845
1.25728
1.24973
1.24083
1.13663
1.22026
1.20051
1.21817
1.14798
1.1674
1.15598
1.08617
0.96711
1.01357
0.997749
1.00211
1.01241
0.978498
1.00638
0.992357
1.01627
0.995147
1.03265
1.02659
1.08442
1.07581
1.09303
1.11257
1.08265
1.07007
1.11116
1.10061
1.12603
1.12638
1.15455
1.10141
1.14007
1.15203
1.13164
1.1764
1.12183
1.23311
1.1811
1.28659
1.19698
1.40239
1.2389
1.39282
1.27716
1.47647
1.30981
1.50038
1.33921
1.55818
1.37815
1.4658
1.39014
1.44811
1.43091
1.44973
1.46486
1.44299
1.48856
1.45196
1.50217
1.46712
1.50077
1.43705
1.53029
1.53979
1.73324
1.76763
1.82276
1.79869
1.84884
1.81029
1.89396
1.8221
1.88896
1.88871
1.89393
1.86401
1.93223
1.88037
1.97459
1.93635
1.96623
1.94135
1.95741
1.91498
1.92316
1.92383
1.94865
1.93138
1.97088
1.88109
1.92153
1.93253
1.9825
1.93412
1.91801
1.9082
1.98405
1.93497
1.94144
1.89559
1.91876
1.95078
1.98186
1.98774
1.98522
1.96711
1.98114
1.9994
1.97532
1.96521
1.97209
1.86045
1.82204
1.77045
1.6953
1.63253
1.5555
1.52685
1.48636
1.44224
1.40491
1.34866
1.28492
1.25923
1.23323
1.21716
1.20654
1.20103
1.20273
1.21832
1.20323
1.23273
1.20515
1.21922
1.20473
1.2426
1.22351
1.23745
1.21527
1.23794
1.23415
1.24924
1.23721
1.25582
1.24372
1.25266
1.23749
1.27067
1.23356
1.26872
1.24205
1.28242
1.23517
1.28181
1.22963
1.26526
1.21273
1.25814
1.20564
1.25857
1.20333
1.25555
1.18949
1.24947
1.20539
1.23549
1.24146
1.24083
1.24784
1.25133
1.23761
1.22929
1.21311
1.25216
1.18826
1.21807
1.16382
1.19314
1.17123
1.19594
1.17747
1.20353
0.946855
1.04211
0.864851
1.08415
1.31588
1.04762
0.888781
0.77739
1.00604
1.39847
0.694744
0.868765
0.815835
1.00189
1.20254
1.20007
1.24186
1.40829
1.40134
1.42307
1.39386
1.35293
1.3411
1.33214
1.33464
1.31328
1.32536
1.31773
1.33359
1.30319
1.28496
1.27133