/*--------------------------------*- C++ -*----------------------------------*\
| =========                 |                                                 |
| \\      /  F ield         | OpenFOAM: The Open Source CFD Toolbox           |
|  \\    /   O peration     | Version:  2312                                  |
|   \\  /    A nd           | Website:  www.openfoam.com                      |
|    \\/     M anipulation  |                                                 |
\*---------------------------------------------------------------------------*/
FoamFile
{
    version     2.0;
    format      ascii;
    arch        "LSB;label=32;scalar=64";
    class       volScalarField;
    location    "6";
    object      pMean;
}
// * * * * * * * * * * * * * * * * * * * * * * * * * * * * * * * * * * * * * //

dimensions      [0 2 -2 0 0 0 0];

internalField   nonuniform List<scalar> 
154566
(
0.0655988
0.0656052
0.0656091
0.0656159
0.0656232
0.0656323
0.065643
0.0656551
0.0656691
0.0656847
0.0657021
0.0657212
0.0657422
0.0657649
0.0657896
0.0658161
0.0658446
0.065875
0.0659075
0.0659419
0.0659785
0.0660171
0.0660579
0.0661008
0.0661459
0.0661933
0.066243
0.0662949
0.0663493
0.066406
0.0664652
0.0665269
0.0665911
0.0666578
0.0667271
0.066799
0.0668736
0.0669508
0.0670308
0.0671135
0.0671989
0.0672872
0.0673784
0.0674723
0.0675693
0.0676691
0.0677719
0.0678778
0.0679866
0.0680985
0.0682136
0.0683317
0.068453
0.0685775
0.0687052
0.0688361
0.0689703
0.0691079
0.0692489
0.0693932
0.0695411
0.0696924
0.0698473
0.0700058
0.0701679
0.0703337
0.0705033
0.0706766
0.0708538
0.0710348
0.0712197
0.0714087
0.0716016
0.0717986
0.0719998
0.0722051
0.0724147
0.0726286
0.0728469
0.0730696
0.0732967
0.0735284
0.0737647
0.0740056
0.0742513
0.0745018
0.0747571
0.0750174
0.0752827
0.075553
0.0758285
0.0761091
0.0763951
0.0766864
0.0769832
0.0772855
0.0775934
0.077907
0.0782263
0.0785515
0.0788827
0.0792199
0.0795632
0.0799128
0.0802687
0.080631
0.0809999
0.0813754
0.0817576
0.0821466
0.0825426
0.0829457
0.0833559
0.0837734
0.0841983
0.0846307
0.0850708
0.0855187
0.0859744
0.0864382
0.0869102
0.0873904
0.0878791
0.0883765
0.0888825
0.0893974
0.0899214
0.0904545
0.090997
0.091549
0.0921107
0.0926822
0.0932638
0.0938554
0.0944575
0.0950701
0.0956933
0.0963275
0.0969728
0.0976293
0.0982973
0.0989769
0.0996683
0.100372
0.101088
0.101816
0.102557
0.10331
0.104077
0.104857
0.10565
0.106457
0.107278
0.108113
0.108962
0.109826
0.110704
0.111597
0.112505
0.113428
0.114366
0.11532
0.11629
0.117275
0.118276
0.119292
0.120325
0.121374
0.122439
0.12352
0.124618
0.125731
0.12686
0.128005
0.129166
0.130342
0.131534
0.132741
0.133962
0.135198
0.136447
0.137709
0.138984
0.140271
0.141569
0.142877
0.144194
0.145518
0.14685
0.148186
0.149526
0.150868
0.152209
0.153548
0.154883
0.15621
0.157527
0.158831
0.160118
0.161385
0.162628
0.163842
0.165024
0.166167
0.167266
0.168314
0.169306
0.170234
0.171091
0.171868
0.172557
0.173148
0.173632
0.173996
0.17423
0.174321
0.174256
0.17402
0.173599
0.172977
0.172135
0.171057
0.169723
0.168114
0.166207
0.163981
0.161412
0.158476
0.155147
0.151399
0.147205
0.142537
0.137366
0.131661
0.125394
0.118534
0.11105
0.102912
0.094091
0.0845571
0.0742824
0.0632406
0.0514069
0.0387594
0.0252789
0.0109495
-0.00424002
-0.0202966
-0.0372214
-0.0550097
-0.0736497
-0.0931224
-0.1134
-0.134447
-0.156216
-0.178653
-0.201691
-0.225253
-0.249249
-0.27358
-0.298132
-0.322777
-0.347372
-0.371751
-0.395724
-0.419069
-0.441524
-0.462784
-0.482507
-0.500329
-0.51588
-0.528763
-0.538661
-0.54544
-0.549399
-0.551198
-0.551658
-0.551447
-0.550982
0.0661534
0.0661573
0.0661608
0.066166
0.0661728
0.0661808
0.0661911
0.0662025
0.0662162
0.0662314
0.0662487
0.0662677
0.0662888
0.0663118
0.0663369
0.0663639
0.066393
0.0664242
0.0664575
0.0664929
0.0665305
0.0665702
0.0666122
0.0666564
0.0667029
0.0667517
0.0668027
0.0668561
0.0669119
0.06697
0.0670306
0.0670936
0.0671591
0.067227
0.0672975
0.0673706
0.0674462
0.0675245
0.0676054
0.067689
0.0677754
0.0678645
0.0679564
0.0680511
0.0681487
0.0682492
0.0683527
0.0684591
0.0685686
0.0686812
0.0687969
0.0689158
0.0690378
0.0691632
0.0692918
0.0694238
0.0695592
0.069698
0.0698403
0.0699861
0.0701356
0.0702886
0.0704453
0.0706057
0.0707699
0.0709379
0.0711098
0.0712855
0.0714653
0.0716491
0.0718369
0.0720289
0.0722251
0.0724255
0.0726302
0.0728393
0.0730527
0.0732707
0.0734932
0.0737203
0.073952
0.0741885
0.0744297
0.0746758
0.0749269
0.0751829
0.075444
0.0757102
0.0759817
0.0762584
0.0765405
0.076828
0.077121
0.0774197
0.077724
0.0780341
0.07835
0.0786719
0.0789999
0.0793339
0.0796741
0.0800207
0.0803737
0.0807331
0.0810992
0.081472
0.0818515
0.0822381
0.0826316
0.0830323
0.0834402
0.0838556
0.0842784
0.0847089
0.0851472
0.0855933
0.0860474
0.0865097
0.0869803
0.0874594
0.087947
0.0884433
0.0889486
0.0894628
0.0899863
0.0905191
0.0910615
0.0916135
0.0921754
0.0927473
0.0933294
0.093922
0.0945251
0.095139
0.0957639
0.0963999
0.0970473
0.0977063
0.0983771
0.0990599
0.0997548
0.100462
0.101182
0.101915
0.102661
0.10342
0.104193
0.10498
0.10578
0.106595
0.107425
0.108269
0.109127
0.110002
0.110891
0.111796
0.112717
0.113654
0.114607
0.115577
0.116564
0.117567
0.118588
0.119625
0.12068
0.121753
0.122844
0.123952
0.125078
0.126222
0.127385
0.128565
0.129764
0.13098
0.132215
0.133467
0.134737
0.136025
0.137329
0.138651
0.139989
0.141343
0.142713
0.144098
0.145496
0.146908
0.148333
0.149768
0.151214
0.152669
0.154132
0.1556
0.157072
0.158546
0.16002
0.161491
0.162957
0.164414
0.16586
0.167292
0.168704
0.170094
0.171457
0.172787
0.174079
0.175328
0.176526
0.177668
0.178746
0.179752
0.180676
0.181511
0.182247
0.182872
0.183375
0.183744
0.183966
0.184027
0.183912
0.183605
0.18309
0.182349
0.181363
0.180112
0.178575
0.17673
0.174554
0.172023
0.169112
0.165794
0.162042
0.157828
0.153124
0.1479
0.142126
0.135772
0.128807
0.121202
0.112926
0.103949
0.0942444
0.0837847
0.072545
0.0605029
0.0476387
0.0339361
0.019383
0.00397185
-0.0122994
-0.029427
-0.0474001
-0.0662009
-0.085803
-0.106172
-0.127263
-0.149022
-0.171385
-0.194277
-0.217613
-0.241298
-0.265227
-0.289287
-0.313357
-0.337314
-0.361029
-0.384372
-0.407208
-0.429391
-0.450748
-0.471068
-0.490054
-0.507231
-0.521856
-0.532957
-0.540013
-0.543351
-0.544438
-0.54438
-0.544097
0.066569
0.0665689
0.0665732
0.0665775
0.0665849
0.0665931
0.0666039
0.0666158
0.06663
0.0666457
0.0666635
0.066683
0.0667045
0.0667278
0.0667532
0.0667804
0.0668098
0.0668411
0.0668746
0.0669101
0.0669478
0.0669877
0.0670298
0.0670741
0.0671207
0.0671696
0.0672208
0.0672745
0.0673305
0.067389
0.06745
0.0675136
0.0675797
0.0676483
0.0677197
0.0677937
0.0678704
0.0679498
0.068032
0.068117
0.0682049
0.0682956
0.0683893
0.0684858
0.0685854
0.068688
0.0687937
0.0689025
0.0690143
0.0691294
0.0692477
0.0693692
0.069494
0.0696221
0.0697536
0.0698884
0.0700267
0.0701686
0.0703139
0.0704628
0.0706154
0.0707717
0.0709316
0.0710954
0.071263
0.0714344
0.0716098
0.0717892
0.0719726
0.0721601
0.0723518
0.0725476
0.0727477
0.0729522
0.073161
0.0733743
0.073592
0.0738144
0.0740413
0.074273
0.0745095
0.0747507
0.0749969
0.0752481
0.0755042
0.0757656
0.0760321
0.0763039
0.076581
0.0768636
0.0771516
0.0774453
0.0777447
0.0780498
0.0783608
0.0786777
0.0790006
0.0793297
0.0796651
0.0800067
0.0803548
0.0807094
0.0810707
0.0814387
0.0818136
0.0821954
0.0825843
0.0829804
0.0833839
0.0837948
0.0842132
0.0846394
0.0850733
0.0855153
0.0859653
0.0864236
0.0868903
0.0873654
0.0878493
0.088342
0.0888437
0.0893545
0.0898747
0.0904043
0.0909436
0.0914927
0.0920518
0.0926212
0.0932008
0.0937911
0.0943921
0.0950041
0.0956272
0.0962617
0.0969077
0.0975656
0.0982355
0.0989176
0.0996121
0.100319
0.10104
0.101773
0.10252
0.10328
0.104054
0.104843
0.105646
0.106463
0.107295
0.108143
0.109006
0.109885
0.110779
0.11169
0.112618
0.113562
0.114523
0.115502
0.116498
0.117512
0.118544
0.119594
0.120663
0.12175
0.122856
0.123982
0.125127
0.126291
0.127476
0.12868
0.129903
0.131147
0.132411
0.133696
0.135
0.136324
0.137669
0.139033
0.140417
0.14182
0.143243
0.144684
0.146144
0.147621
0.149116
0.150627
0.152154
0.153695
0.155251
0.156818
0.158398
0.159986
0.161583
0.163186
0.164793
0.166402
0.16801
0.169615
0.171213
0.172802
0.174377
0.175935
0.177472
0.178982
0.18046
0.181901
0.183299
0.184647
0.185938
0.187163
0.188316
0.189387
0.190365
0.191242
0.192005
0.192644
0.193144
0.193492
0.193675
0.193675
0.193478
0.193064
0.192417
0.191515
0.190339
0.188866
0.187074
0.184939
0.182435
0.179538
0.176219
0.172452
0.168206
0.163454
0.158166
0.15231
0.145857
0.138776
0.131038
0.122613
0.113472
0.103589
0.0929384
0.0814973
0.0692456
0.0561665
0.0422474
0.0274798
0.011861
-0.00460613
-0.0219119
-0.0400396
-0.058964
-0.0786518
-0.0990599
-0.120136
-0.141817
-0.164028
-0.186686
-0.209692
-0.232939
-0.256302
-0.279645
-0.302812
-0.32563
-0.347902
-0.36941
-0.389909
-0.40914
-0.426834
-0.442714
-0.456473
-0.467706
-0.475992
-0.481109
-0.483532
-0.484306
-0.484457
-0.48441
0.067074
0.0670703
0.067075
0.0670778
0.0670852
0.0670927
0.0671033
0.067115
0.0671291
0.0671447
0.0671625
0.067182
0.0672036
0.0672272
0.0672528
0.0672804
0.0673102
0.067342
0.0673761
0.0674122
0.0674506
0.0674911
0.067534
0.0675791
0.0676265
0.0676763
0.0677284
0.067783
0.06784
0.0678995
0.0679614
0.0680259
0.068093
0.0681626
0.0682349
0.0683099
0.0683875
0.0684679
0.068551
0.068637
0.0687258
0.0688175
0.0689121
0.0690097
0.0691103
0.0692139
0.0693206
0.0694304
0.0695434
0.0696595
0.069779
0.0699018
0.0700279
0.0701574
0.0702903
0.0704267
0.0705667
0.0707102
0.0708574
0.0710082
0.0711628
0.0713212
0.0714833
0.0716494
0.0718194
0.0719934
0.0721714
0.0723536
0.0725399
0.0727304
0.0729252
0.0731243
0.0733278
0.0735358
0.0737483
0.0739653
0.0741871
0.0744135
0.0746447
0.0748808
0.0751218
0.0753678
0.0756188
0.075875
0.0761365
0.0764032
0.0766753
0.0769528
0.0772359
0.0775246
0.077819
0.0781192
0.0784254
0.0787374
0.0790556
0.0793799
0.0797105
0.0800474
0.0803909
0.0807408
0.0810975
0.0814609
0.0818313
0.0822086
0.0825931
0.0829848
0.0833838
0.0837904
0.0842045
0.0846264
0.0850562
0.085494
0.08594
0.0863942
0.0868569
0.0873282
0.0878083
0.0882972
0.0887952
0.0893024
0.089819
0.0903452
0.0908812
0.091427
0.0919829
0.0925492
0.0931259
0.0937133
0.0943116
0.094921
0.0955417
0.0961739
0.0968178
0.0974736
0.0981417
0.0988222
0.0995153
0.100221
0.100941
0.101673
0.102419
0.10318
0.103954
0.104743
0.105546
0.106365
0.107199
0.108048
0.108913
0.109794
0.110692
0.111607
0.112538
0.113487
0.114454
0.115438
0.116441
0.117462
0.118503
0.119562
0.12064
0.121739
0.122857
0.123996
0.125155
0.126335
0.127536
0.128758
0.130002
0.131268
0.132555
0.133864
0.135196
0.13655
0.137926
0.139324
0.140745
0.142189
0.143654
0.145142
0.146651
0.148182
0.149734
0.151308
0.152901
0.154514
0.156147
0.157797
0.159465
0.16115
0.162849
0.164562
0.166287
0.168023
0.169767
0.171518
0.173273
0.17503
0.176785
0.178536
0.180279
0.18201
0.183727
0.185423
0.187093
0.188733
0.190337
0.191897
0.193408
0.194861
0.19625
0.197564
0.198794
0.199932
0.200965
0.201882
0.20267
0.203317
0.203807
0.204127
0.204258
0.204185
0.203889
0.20335
0.202549
0.201464
0.200071
0.198349
0.196271
0.193812
0.190945
0.187643
0.183878
0.179619
0.174838
0.169504
0.163587
0.157057
0.149883
0.142036
0.133488
0.124211
0.11418
0.103372
0.0917657
0.079344
0.0660936
0.0520055
0.0370759
0.0213068
0.00470672
-0.0127086
-0.0309155
-0.0498821
-0.0695671
-0.0899198
-0.110879
-0.132375
-0.154326
-0.176641
-0.199219
-0.221953
-0.244729
-0.267428
-0.289933
-0.312127
-0.333901
-0.35515
-0.375773
-0.395664
-0.414667
-0.432466
-0.448354
-0.461243
-0.470134
-0.475148
-0.477247
-0.478025
-0.478337
0.0675079
0.0675068
0.0675115
0.0675152
0.0675226
0.0675304
0.067541
0.0675528
0.067567
0.0675827
0.0676007
0.0676204
0.0676422
0.067666
0.0676919
0.0677198
0.0677499
0.0677821
0.0678164
0.0678529
0.0678917
0.0679327
0.067976
0.0680216
0.0680696
0.06812
0.0681727
0.068228
0.0682857
0.0683459
0.0684086
0.0684739
0.0685418
0.0686124
0.0686856
0.0687616
0.0688403
0.0689218
0.0690061
0.0690932
0.0691833
0.0692763
0.0693722
0.0694712
0.0695733
0.0696784
0.0697867
0.0698981
0.0700127
0.0701307
0.0702519
0.0703765
0.0705044
0.0706359
0.0707708
0.0709093
0.0710513
0.071197
0.0713465
0.0714996
0.0716566
0.0718174
0.0719822
0.0721509
0.0723236
0.0725004
0.0726813
0.0728664
0.0730557
0.0732494
0.0734474
0.0736499
0.0738569
0.0740684
0.0742846
0.0745054
0.074731
0.0749615
0.0751969
0.0754372
0.0756826
0.0759332
0.0761889
0.0764499
0.0767163
0.0769881
0.0772655
0.0775485
0.0778371
0.0781316
0.078432
0.0787383
0.0790507
0.0793692
0.079694
0.0800252
0.0803629
0.0807071
0.081058
0.0814158
0.0817804
0.082152
0.0825308
0.0829168
0.0833103
0.0837112
0.0841197
0.0845361
0.0849603
0.0853925
0.085833
0.0862817
0.086739
0.0872048
0.0876795
0.0881631
0.0886558
0.0891577
0.0896691
0.0901902
0.090721
0.0912618
0.0918127
0.092374
0.0929459
0.0935285
0.0941221
0.0947269
0.095343
0.0959708
0.0966103
0.097262
0.0979259
0.0986024
0.0992916
0.0999939
0.100709
0.101439
0.102182
0.102939
0.10371
0.104496
0.105297
0.106113
0.106945
0.107793
0.108656
0.109537
0.110434
0.111348
0.112279
0.113229
0.114196
0.115182
0.116186
0.11721
0.118253
0.119316
0.120398
0.121502
0.122626
0.123771
0.124938
0.126126
0.127337
0.12857
0.129825
0.131104
0.132406
0.133731
0.13508
0.136453
0.137851
0.139273
0.140719
0.14219
0.143685
0.145206
0.146751
0.148321
0.149915
0.151534
0.153177
0.154843
0.156534
0.158247
0.159982
0.16174
0.163518
0.165316
0.167134
0.168968
0.17082
0.172686
0.174565
0.176455
0.178354
0.18026
0.18217
0.18408
0.185988
0.187891
0.189784
0.191663
0.193523
0.195359
0.197165
0.198935
0.200662
0.202341
0.203961
0.205516
0.206995
0.20839
0.209689
0.210882
0.211955
0.212897
0.213692
0.214327
0.214784
0.215048
0.2151
0.214922
0.214492
0.21379
0.212794
0.211481
0.209825
0.207801
0.205383
0.202543
0.199253
0.195485
0.191208
0.186392
0.181007
0.175023
0.16841
0.161138
0.153179
0.144504
0.135089
0.124909
0.113943
0.102174
0.0895882
0.0761746
0.0619293
0.0468531
0.0309535
0.0142451
-0.00324986
-0.0215008
-0.040468
-0.0601024
-0.0803445
-0.101125
-0.122363
-0.143968
-0.165838
-0.187861
-0.209917
-0.23188
-0.253623
-0.275027
-0.295992
-0.316452
-0.336393
-0.355848
-0.37486
-0.393279
-0.410442
-0.424974
-0.435483
-0.441626
-0.444305
-0.445164
-0.445441
0.0679366
0.0679419
0.0679457
0.0679521
0.0679596
0.0679688
0.0679798
0.0679924
0.068007
0.0680233
0.0680416
0.0680618
0.068084
0.0681081
0.0681343
0.0681626
0.0681929
0.0682254
0.0682601
0.0682969
0.068336
0.0683773
0.068421
0.0684669
0.0685153
0.068566
0.0686192
0.0686749
0.068733
0.0687938
0.0688571
0.068923
0.0689916
0.0690629
0.069137
0.0692138
0.0692935
0.069376
0.0694614
0.0695497
0.069641
0.0697354
0.0698327
0.0699332
0.0700368
0.0701436
0.0702536
0.0703668
0.0704834
0.0706033
0.0707266
0.0708534
0.0709836
0.0711174
0.0712547
0.0713957
0.0715403
0.0716886
0.0718408
0.0719967
0.0721565
0.0723202
0.072488
0.0726597
0.0728356
0.0730156
0.0731999
0.0733884
0.0735813
0.0737786
0.0739803
0.0741866
0.0743974
0.074613
0.0748332
0.0750583
0.0752883
0.0755232
0.0757631
0.0760081
0.0762583
0.0765137
0.0767745
0.0770407
0.0773124
0.0775897
0.0778727
0.0781615
0.0784561
0.0787566
0.0790633
0.079376
0.079695
0.0800203
0.0803521
0.0806905
0.0810355
0.0813873
0.081746
0.0821116
0.0824844
0.0828645
0.0832519
0.0836468
0.0840494
0.0844597
0.0848779
0.0853042
0.0857386
0.0861814
0.0866327
0.0870925
0.0875612
0.0880389
0.0885256
0.0890216
0.0895271
0.0900423
0.0905672
0.0911022
0.0916473
0.0922028
0.0927689
0.0933458
0.0939337
0.0945329
0.0951434
0.0957656
0.0963997
0.097046
0.0977046
0.0983758
0.0990598
0.099757
0.100468
0.101192
0.10193
0.102682
0.103449
0.104231
0.105028
0.10584
0.106668
0.107511
0.108372
0.109248
0.110142
0.111054
0.111982
0.112929
0.113895
0.114879
0.115882
0.116905
0.117947
0.11901
0.120093
0.121198
0.122323
0.123471
0.12464
0.125833
0.127048
0.128286
0.129548
0.130833
0.132144
0.133478
0.134838
0.136223
0.137634
0.139071
0.140534
0.142024
0.14354
0.145083
0.146653
0.14825
0.149874
0.151526
0.153205
0.154911
0.156644
0.158403
0.16019
0.162002
0.16384
0.165703
0.167591
0.169502
0.171436
0.173392
0.175368
0.177363
0.179376
0.181404
0.183446
0.185499
0.187561
0.189629
0.1917
0.193771
0.195839
0.197898
0.199944
0.201973
0.203979
0.205955
0.207897
0.209796
0.211645
0.213435
0.215159
0.216807
0.218368
0.21983
0.221183
0.222413
0.223507
0.22445
0.225227
0.22582
0.226212
0.226385
0.226318
0.22599
0.225381
0.224465
0.22322
0.221619
0.219637
0.217246
0.214418
0.211125
0.207336
0.203022
0.198152
0.192696
0.186625
0.179907
0.172515
0.16442
0.155597
0.146021
0.135671
0.124529
0.112579
0.0998107
0.0862196
0.0718052
0.0565739
0.040539
0.0237215
0.00615055
-0.0121357
-0.0310899
-0.0506547
-0.0707629
-0.0913362
-0.112287
-0.133516
-0.154913
-0.176357
-0.197714
-0.218834
-0.23955
-0.259667
-0.278962
-0.297179
-0.31402
-0.329164
-0.342203
-0.352691
-0.360159
-0.364598
-0.366541
-0.367049
-0.366847
-0.366484
0.0683982
0.0684002
0.0684042
0.068409
0.0684163
0.0684246
0.0684355
0.0684476
0.0684622
0.0684783
0.0684967
0.068517
0.0685394
0.0685638
0.0685904
0.0686191
0.06865
0.0686831
0.0687184
0.068756
0.0687959
0.0688381
0.0688827
0.0689296
0.068979
0.0690308
0.069085
0.0691418
0.0692012
0.0692631
0.0693276
0.0693948
0.0694647
0.0695372
0.0696125
0.0696906
0.0697715
0.0698553
0.069942
0.0700316
0.0701241
0.0702197
0.0703184
0.0704201
0.0705251
0.0706332
0.0707445
0.0708591
0.070977
0.0710983
0.0712231
0.0713513
0.071483
0.0716183
0.0717572
0.0718998
0.0720462
0.0721963
0.0723503
0.0725082
0.0726701
0.072836
0.073006
0.0731801
0.0733584
0.073541
0.0737278
0.0739191
0.0741148
0.0743151
0.0745199
0.0747294
0.0749436
0.0751625
0.0753864
0.0756152
0.075849
0.0760879
0.0763319
0.0765812
0.0768359
0.0770959
0.0773614
0.0776326
0.0779093
0.0781919
0.0784803
0.0787746
0.079075
0.0793815
0.0796943
0.0800133
0.0803389
0.080671
0.0810097
0.0813552
0.0817076
0.082067
0.0824335
0.0828073
0.0831885
0.0835771
0.0839733
0.0843774
0.0847893
0.0852092
0.0856373
0.0860738
0.0865187
0.0869722
0.0874345
0.0879058
0.0883862
0.0888758
0.089375
0.0898837
0.0904023
0.0909308
0.0914696
0.0920187
0.0925785
0.093149
0.0937306
0.0943234
0.0949276
0.0955435
0.0961713
0.0968112
0.0974636
0.0981285
0.0988064
0.0994974
0.100202
0.10092
0.101652
0.102398
0.103159
0.103935
0.104726
0.105533
0.106355
0.107193
0.108048
0.10892
0.109809
0.110715
0.111639
0.112582
0.113543
0.114523
0.115522
0.116541
0.117581
0.118641
0.119721
0.120824
0.121948
0.123094
0.124263
0.125455
0.12667
0.12791
0.129174
0.130462
0.131776
0.133115
0.13448
0.135872
0.13729
0.138736
0.140209
0.14171
0.14324
0.144798
0.146384
0.148
0.149646
0.151321
0.153025
0.15476
0.156524
0.158319
0.160143
0.161997
0.163881
0.165794
0.167736
0.169707
0.171706
0.173732
0.175785
0.177863
0.179966
0.182092
0.184241
0.186409
0.188596
0.190799
0.193016
0.195245
0.197482
0.199725
0.201971
0.204214
0.20645
0.208676
0.210885
0.213073
0.215232
0.217356
0.219439
0.221471
0.223445
0.22535
0.227178
0.228917
0.230556
0.232082
0.233481
0.23474
0.235843
0.236774
0.237514
0.238047
0.238352
0.238408
0.238194
0.237687
0.236863
0.235696
0.234161
0.232231
0.229877
0.227072
0.223784
0.219985
0.215644
0.210731
0.205216
0.199068
0.192258
0.184759
0.176544
0.167589
0.157871
0.147372
0.136075
0.123971
0.111051
0.0973166
0.0827714
0.067428
0.051306
0.0344331
0.016846
-0.00140973
-0.0202782
-0.0396941
-0.0595809
-0.0798527
-0.100412
-0.121153
-0.141958
-0.162703
-0.183254
-0.203473
-0.223212
-0.242319
-0.260631
-0.277977
-0.294147
-0.308822
-0.321465
-0.331287
-0.337748
-0.340948
-0.342072
-0.342113
-0.341903
0.0688033
0.068802
0.0688067
0.068811
0.0688188
0.0688275
0.0688389
0.0688516
0.0688667
0.0688833
0.0689022
0.0689229
0.0689457
0.0689704
0.0689973
0.0690262
0.0690573
0.0690906
0.069126
0.0691637
0.0692037
0.069246
0.0692907
0.0693377
0.0693872
0.0694391
0.0694936
0.0695505
0.0696101
0.0696723
0.0697372
0.0698047
0.0698751
0.0699482
0.0700242
0.070103
0.0701847
0.0702695
0.0703572
0.0704479
0.0705418
0.0706387
0.0707388
0.0708422
0.0709487
0.0710586
0.0711718
0.0712884
0.0714085
0.071532
0.071659
0.0717897
0.0719239
0.0720618
0.0722034
0.0723488
0.072498
0.072651
0.0728079
0.0729689
0.0731338
0.0733028
0.073476
0.0736534
0.0738351
0.074021
0.0742114
0.0744063
0.0746056
0.0748096
0.0750182
0.0752316
0.0754497
0.0756728
0.0759008
0.0761338
0.0763719
0.0766153
0.0768638
0.0771178
0.0773771
0.077642
0.0779125
0.0781887
0.0784707
0.0787586
0.0790525
0.0793524
0.0796585
0.079971
0.0802897
0.080615
0.0809469
0.0812855
0.081631
0.0819834
0.0823428
0.0827095
0.0830834
0.0834648
0.0838537
0.0842504
0.0846549
0.0850674
0.0854881
0.085917
0.0863543
0.0868003
0.087255
0.0877186
0.0881912
0.0886731
0.0891645
0.0896654
0.0901761
0.0906968
0.0912277
0.0917689
0.0923207
0.0928832
0.0934568
0.0940415
0.0946376
0.0952454
0.0958651
0.096497
0.0971411
0.097798
0.0984677
0.0991505
0.0998468
0.100557
0.101281
0.102019
0.102772
0.103539
0.104322
0.105121
0.105935
0.106765
0.107612
0.108476
0.109357
0.110255
0.111172
0.112107
0.11306
0.114033
0.115025
0.116037
0.117069
0.118122
0.119197
0.120293
0.121411
0.122551
0.123715
0.124902
0.126112
0.127347
0.128607
0.129893
0.131203
0.132541
0.133904
0.135295
0.136714
0.138161
0.139636
0.14114
0.142674
0.144237
0.145831
0.147455
0.149111
0.150797
0.152516
0.154266
0.156049
0.157863
0.159711
0.161591
0.163504
0.16545
0.167428
0.169439
0.171482
0.173557
0.175664
0.177801
0.17997
0.182167
0.184393
0.186647
0.188927
0.191232
0.19356
0.195909
0.198277
0.200662
0.203061
0.205471
0.207889
0.210312
0.212734
0.215151
0.217559
0.219951
0.222323
0.224668
0.226978
0.229246
0.231464
0.233622
0.235711
0.23772
0.239639
0.241454
0.243153
0.244721
0.246144
0.247406
0.248489
0.249375
0.250045
0.250479
0.250654
0.25055
0.250141
0.249402
0.248309
0.246834
0.244949
0.242625
0.239834
0.236546
0.23273
0.228355
0.223392
0.217811
0.211582
0.204677
0.197069
0.188734
0.179648
0.169792
0.159151
0.147712
0.135468
0.122416
0.108562
0.0939155
0.0784954
0.0623278
0.0454478
0.0278991
0.00973577
-0.00897899
-0.0281708
-0.0477559
-0.0676382
-0.0877123
-0.107858
-0.127945
-0.14782
-0.167314
-0.186224
-0.204316
-0.221306
-0.236881
-0.25068
-0.26233
-0.271471
-0.277887
-0.28161
-0.283289
-0.283762
-0.28393
-0.283944
0.0692715
0.0692664
0.0692714
0.0692736
0.0692812
0.0692887
0.0692997
0.0693116
0.0693263
0.0693426
0.0693613
0.0693819
0.0694048
0.0694297
0.0694569
0.0694862
0.0695179
0.0695518
0.069588
0.0696265
0.0696674
0.0697107
0.0697564
0.0698045
0.0698552
0.0699083
0.069964
0.0700223
0.0700832
0.0701468
0.070213
0.0702819
0.0703536
0.070428
0.0705052
0.0705853
0.0706682
0.0707541
0.070843
0.0709348
0.0710298
0.0711278
0.0712289
0.0713333
0.0714408
0.0715517
0.0716659
0.0717834
0.0719044
0.0720288
0.0721568
0.0722884
0.0724236
0.0725625
0.0727051
0.0728516
0.073002
0.0731563
0.0733146
0.073477
0.0736435
0.0738142
0.0739891
0.0741684
0.074352
0.0745401
0.0747326
0.0749298
0.0751316
0.0753381
0.0755494
0.0757656
0.0759867
0.0762128
0.076444
0.0766804
0.076922
0.077169
0.0774215
0.0776794
0.0779429
0.0782121
0.0784871
0.0787679
0.0790548
0.0793477
0.0796467
0.079952
0.0802637
0.0805819
0.0809066
0.0812381
0.0815763
0.0819215
0.0822737
0.0826331
0.0829998
0.0833739
0.0837556
0.084145
0.0845421
0.0849473
0.0853605
0.085782
0.0862119
0.0866504
0.0870975
0.0875535
0.0880185
0.0884928
0.0889764
0.0894696
0.0899725
0.0904853
0.0910082
0.0915415
0.0920852
0.0926397
0.0932051
0.0937817
0.0943696
0.0949692
0.0955805
0.096204
0.0968398
0.0974881
0.0981493
0.0988236
0.0995112
0.100213
0.100928
0.101657
0.102401
0.10316
0.103934
0.104723
0.105529
0.10635
0.107188
0.108043
0.108915
0.109804
0.110712
0.111638
0.112582
0.113546
0.11453
0.115533
0.116557
0.117601
0.118667
0.119755
0.120865
0.121998
0.123153
0.124333
0.125537
0.126765
0.128018
0.129297
0.130602
0.131934
0.133293
0.13468
0.136095
0.137539
0.139012
0.140515
0.142049
0.143613
0.145208
0.146835
0.148495
0.150187
0.151913
0.153672
0.155465
0.157293
0.159155
0.161052
0.162985
0.164953
0.166957
0.168997
0.171072
0.173184
0.175331
0.177513
0.179731
0.181983
0.18427
0.186591
0.188944
0.19133
0.193746
0.196191
0.198665
0.201165
0.203689
0.206236
0.208802
0.211386
0.213984
0.216591
0.219206
0.221822
0.224437
0.227043
0.229636
0.23221
0.234757
0.237271
0.239743
0.242165
0.244527
0.246819
0.24903
0.251148
0.25316
0.255053
0.256812
0.258421
0.259863
0.261121
0.262176
0.263007
0.263593
0.263912
0.263941
0.263655
0.263028
0.262034
0.260645
0.258833
0.256569
0.253822
0.250562
0.24676
0.242385
0.237406
0.231795
0.225522
0.218562
0.210887
0.202476
0.193309
0.183368
0.17264
0.161118
0.148798
0.135683
0.121784
0.107116
0.0917051
0.0755837
0.0587939
0.0413876
0.0234256
0.00497881
-0.0138733
-0.0330422
-0.0524348
-0.0719533
-0.0915062
-0.11101
-0.13041
-0.149683
-0.16887
-0.188062
-0.207425
-0.22709
-0.246979
-0.266301
-0.283368
-0.296136
-0.303889
-0.307443
-0.308774
-0.309368
0.069634
0.0696382
0.0696425
0.0696488
0.0696567
0.0696662
0.0696777
0.0696909
0.0697061
0.0697231
0.0697423
0.0697633
0.0697865
0.0698118
0.0698392
0.0698687
0.0699004
0.0699344
0.0699706
0.0700091
0.07005
0.0700932
0.0701389
0.070187
0.0702376
0.0702907
0.0703464
0.0704048
0.0704657
0.0705294
0.0705958
0.070665
0.070737
0.0708119
0.0708897
0.0709704
0.0710541
0.0711409
0.0712307
0.0713237
0.0714199
0.0715192
0.0716218
0.0717277
0.0718369
0.0719496
0.0720656
0.0721852
0.0723083
0.072435
0.0725653
0.0726993
0.0728371
0.0729786
0.073124
0.0732732
0.0734264
0.0735836
0.0737449
0.0739103
0.0740798
0.0742536
0.0744317
0.0746142
0.0748012
0.0749926
0.0751886
0.0753892
0.0755946
0.0758048
0.0760198
0.0762397
0.0764647
0.0766948
0.07693
0.0771706
0.0774164
0.0776677
0.0779245
0.0781869
0.0784549
0.0787288
0.0790086
0.0792943
0.0795862
0.0798842
0.0801885
0.0804992
0.0808164
0.0811402
0.0814707
0.0818081
0.0821525
0.0825039
0.0828625
0.0832285
0.0836019
0.0839829
0.0843717
0.0847683
0.085173
0.0855858
0.0860069
0.0864365
0.0868748
0.0873218
0.0877777
0.0882428
0.0887172
0.0892011
0.0896946
0.090198
0.0907114
0.091235
0.0917691
0.0923138
0.0928694
0.093436
0.0940139
0.0946034
0.0952046
0.0958178
0.0964432
0.0970811
0.0977318
0.0983954
0.0990724
0.099763
0.100467
0.101186
0.101919
0.102667
0.10343
0.104208
0.105002
0.105812
0.106638
0.107481
0.108342
0.10922
0.110115
0.11103
0.111962
0.112914
0.113886
0.114877
0.115889
0.116921
0.117975
0.119051
0.120149
0.12127
0.122414
0.123581
0.124773
0.12599
0.127232
0.128499
0.129793
0.131114
0.132463
0.133839
0.135244
0.136678
0.138142
0.139636
0.141161
0.142718
0.144306
0.145928
0.147582
0.14927
0.150992
0.152749
0.154541
0.156369
0.158234
0.160135
0.162073
0.164049
0.166063
0.168114
0.170205
0.172334
0.174502
0.176709
0.178954
0.181239
0.183562
0.185924
0.188323
0.19076
0.193234
0.195744
0.19829
0.200869
0.203481
0.206124
0.208796
0.211495
0.21422
0.216968
0.219735
0.222519
0.225315
0.22812
0.230929
0.233737
0.236539
0.239329
0.2421
0.244846
0.247558
0.250228
0.252847
0.255405
0.257891
0.260294
0.262601
0.264799
0.266873
0.268807
0.270587
0.272193
0.273607
0.27481
0.27578
0.276496
0.276934
0.277069
0.276878
0.276332
0.275404
0.274067
0.272292
0.270047
0.267304
0.264032
0.260201
0.25578
0.250739
0.24505
0.238686
0.231621
0.22383
0.215295
0.205996
0.19592
0.185059
0.173409
0.16097
0.147752
0.13377
0.119048
0.103616
0.0875164
0.0707981
0.053521
0.0357558
0.0175827
-0.000905298
-0.0196049
-0.0383976
-0.0571524
-0.0757188
-0.0939316
-0.111602
-0.128531
-0.144506
-0.15932
-0.172768
-0.184624
-0.194533
-0.202068
-0.207007
-0.209607
-0.210518
-0.210567
-0.21031
0.0700661
0.0700698
0.0700738
0.0700795
0.0700872
0.0700963
0.0701077
0.0701206
0.0701359
0.0701529
0.0701723
0.0701935
0.070217
0.0702426
0.0702705
0.0703005
0.0703329
0.0703675
0.0704044
0.0704438
0.0704855
0.0705297
0.0705763
0.0706255
0.0706772
0.0707314
0.0707883
0.0708478
0.07091
0.0709749
0.0710426
0.0711131
0.0711864
0.0712625
0.0713416
0.0714237
0.0715087
0.0715968
0.071688
0.0717823
0.0718798
0.0719805
0.0720844
0.0721917
0.0723023
0.0724163
0.0725338
0.0726549
0.0727794
0.0729076
0.0730395
0.0731751
0.0733144
0.0734576
0.0736047
0.0737558
0.0739109
0.07407
0.0742334
0.0744009
0.0745726
0.0747488
0.0749293
0.0751143
0.0753038
0.0754979
0.0756967
0.0759003
0.0761087
0.0763219
0.0765402
0.0767635
0.076992
0.0772256
0.0774646
0.077709
0.0779588
0.0782142
0.0784753
0.0787421
0.0790148
0.0792933
0.079578
0.0798687
0.0801657
0.0804691
0.0807789
0.0810953
0.0814183
0.0817482
0.0820849
0.0824287
0.0827796
0.0831379
0.0835035
0.0838767
0.0842575
0.0846462
0.0850428
0.0854475
0.0858605
0.0862819
0.0867118
0.0871505
0.0875981
0.0880546
0.0885205
0.0889957
0.0894804
0.089975
0.0904795
0.0909941
0.0915191
0.0920547
0.092601
0.0931582
0.0937267
0.0943066
0.0948982
0.0955016
0.0961172
0.0967452
0.0973859
0.0980394
0.0987062
0.0993864
0.10008
0.100788
0.101511
0.102248
0.103
0.103767
0.10455
0.105349
0.106164
0.106995
0.107844
0.108711
0.109595
0.110497
0.111418
0.112358
0.113317
0.114296
0.115296
0.116316
0.117358
0.118421
0.119506
0.120615
0.121746
0.122901
0.124081
0.125285
0.126514
0.12777
0.129051
0.13036
0.131697
0.133061
0.134455
0.135878
0.137331
0.138814
0.140329
0.141876
0.143455
0.145067
0.146713
0.148394
0.150109
0.151861
0.153648
0.155472
0.157334
0.159234
0.161173
0.16315
0.165167
0.167225
0.169323
0.171462
0.173642
0.175864
0.178128
0.180434
0.182782
0.185172
0.187605
0.19008
0.192597
0.195155
0.197754
0.200394
0.203073
0.205791
0.208546
0.211337
0.214163
0.217021
0.21991
0.222828
0.225771
0.228737
0.231722
0.234722
0.237732
0.24075
0.243768
0.246782
0.249785
0.25277
0.25573
0.258657
0.261542
0.264375
0.267146
0.269843
0.272455
0.274968
0.277367
0.279639
0.281766
0.283732
0.285518
0.287105
0.288471
0.289596
0.290455
0.291026
0.291283
0.291199
0.290748
0.2899
0.288628
0.286901
0.28469
0.281964
0.278691
0.274843
0.270389
0.2653
0.259548
0.253108
0.245954
0.238066
0.229426
0.220019
0.209835
0.198868
0.187121
0.174599
0.161318
0.147298
0.13257
0.117172
0.101152
0.0845679
0.0674861
0.0499828
0.0321436
0.0140616
-0.00416099
-0.0224175
-0.0405918
-0.0585646
-0.076201
-0.0933566
-0.109855
-0.12549
-0.139997
-0.152998
-0.163971
-0.172223