/*--------------------------------*- C++ -*----------------------------------*\
| =========                 |                                                 |
| \\      /  F ield         | OpenFOAM: The Open Source CFD Toolbox           |
|  \\    /   O peration     | Version:  2312                                  |
|   \\  /    A nd           | Website:  www.openfoam.com                      |
|    \\/     M anipulation  |                                                 |
\*---------------------------------------------------------------------------*/
FoamFile
{
    version     2.0;
    format      ascii;
    arch        "LSB;label=32;scalar=64";
    class       volScalarField;
    location    "constant";
    object      Pwf;
}
// * * * * * * * * * * * * * * * * * * * * * * * * * * * * * * * * * * * * * //

dimensions      [0 0 0 0 0 0 0];

internalField   nonuniform List<scalar> 
154566
(
0.518572
0.743521
0.863317
0.891078
0.982444
1.0268
1.16976
1.2604
1.31094
1.35653
1.33118
1.35916
1.24378
1.21931
1.18648
1.19405
1.16033
1.16847
1.18771
1.18701
1.18075
1.18829
1.19635
1.16919
1.17118
1.12713
1.14608
1.07557
1.04817
1.10189
1.15312
1.13679
1.13715
1.10667
1.11312
1.0691
1.05777
1.05044
1.07457
0.991577
1.00338
0.988132
1.01276
0.9729
1.00769
0.981447
0.985865
0.958878
0.993018
0.976421
1.05004
1.00459
1.10378
1.08949
1.12436
1.2106
1.28208
1.33566
1.2938
1.32231
1.33942
1.3198
1.30392
1.32027
1.32626
1.30117
1.3139
1.31854
1.31367
1.31744
1.22142
1.18483
1.20601
1.15355
1.13701
1.09849
0.987538
0.916337
0.942493
0.895831
0.917291
0.881525
0.923217
0.869265
0.886419
0.8234
0.850379
0.754997
0.810164
0.66368
0.600943
0.429449
0.44055
0.393253
0.411838
0.385326
0.441509
0.428857
0.425768
0.458591
0.539917
0.560508
0.595006
0.698559
0.773294
0.795746
0.825498
0.827698
0.847039
0.91215
0.881586
0.846989
0.856352
0.831435
0.838949
0.838261
0.776229
0.75805
0.717216
0.73325
0.688393
0.675204
0.640095
0.627609
0.628795
0.623167
0.613233
0.601427
0.618113
0.616539
0.620009
0.619701
0.590887
0.601313
0.607654
0.624754
0.666644
0.662933
0.629197
0.656442
0.650391
0.6683
0.647273
0.654124
0.689787
0.684739
0.671045
0.638324
0.675041
0.665329
0.681922
0.675486
0.668825
0.692442
0.645399
0.630364
0.663201
0.619221
0.634639
0.614277
0.636739
0.605944
0.611112
0.631739
0.613185
0.592561
0.614405
0.619985
0.590836
0.634664
0.60242
0.690041
0.659385
0.724226
0.669943
0.740758
0.795735
0.82735
0.811858
0.886038
0.802507
0.913961
0.818018
0.890839
0.849919
0.904062
0.843885
0.840381
0.831724
0.794835
0.770369
0.699094
0.725603
0.67116
0.667433
0.65287
0.598696
0.566783
0.538985
0.529744
0.552108
0.516187
0.554713
0.549453
0.574302
0.568146
0.583212
0.578327
0.647024
0.686584
0.671248
0.720956
0.736922
0.767617
0.770601
0.784005
0.799062
0.815452
0.824956
0.834522
0.856196
0.835336
0.862768
0.85637
0.875028
0.862722
0.894132
0.865501
0.872244
0.86006
0.88444
0.862899
0.872238
0.852073
0.865635
0.838777
0.873965
0.849807
0.874593
0.844691
0.881601
0.860577
0.898748
0.868481
0.903113
0.874825
0.907093
0.895085
0.925817
0.916065
0.912764
0.924792
0.935818
0.977899
0.960842
0.998029
0.961026
0.994284
0.958472
1.00773
0.977522
1.00901
0.957617
0.986382
0.940124
0.95806
0.947372
0.972177
0.890205
0.803022
0.816362
0.836192
0.729502
0.754014
0.779036
0.737995
0.600288
0.542567
0.445747
0.540964
0.75526
0.818157
0.928403
0.929972
1.05193
1.2046
1.24043
1.33399
1.31269
1.3267
1.2797
1.22877
1.19859
1.19449
1.16893
1.17756
1.13963
1.14977
1.16642
1.17967
1.16432
1.15764
1.15476
1.14735
1.11814
1.09217
1.08761
1.0903
1.0813
1.1155
1.14047
1.12357
1.1165
1.102
1.09057
1.03876
1.09702
1.07823
1.05159
0.942721
0.979891
0.9487
0.966845
0.957566
0.997143
0.926638
0.978355
0.933166
1.02444
1.00617
1.091
1.02609
1.07015
1.23579
1.29098
1.30883
1.32788
1.32667
1.34194
1.34314
1.34889
1.32754
1.33618
1.32043
1.3396
1.3256
1.34008
1.31258
1.30368
1.28587
1.2201
1.19674
1.20331
1.11339
1.08419
1.04426
0.983108
0.950119
0.939371
0.909183
0.925811
0.893009
0.920154
0.84987
0.89991
0.813506
0.840283
0.761874
0.760637
0.534539
0.478165
0.406293
0.433889
0.391296
0.430478
0.415568
0.434821
0.397751
0.438755
0.45064
0.497669
0.546825
0.632119
0.637217
0.740524
0.696968
0.816249
0.766718
0.816124
0.767449
0.800213
0.798426
0.797179
0.786655
0.845472
0.758179
0.733607
0.741527
0.71916
0.737237
0.648256
0.679871
0.620186
0.633561
0.618037
0.627645
0.633692
0.620583
0.635883
0.634773
0.625465
0.640848
0.644269
0.652864
0.675537
0.665104
0.686816
0.683325
0.677896
0.690596
0.699953
0.717732
0.701733
0.703989
0.721046
0.664782
0.690478
0.670799
0.690118
0.696948
0.692367
0.7066
0.68007
0.675723
0.696747
0.682881
0.695813
0.718102
0.715574
0.706031
0.732231
0.741733
0.759472
0.759009
0.768738
0.762985
0.776295
0.787167
0.742681
0.829697
0.788425
0.841963
0.845775
0.908365
0.921989
0.96528
0.973329
1.01328
0.972265
1.02895
0.989401
0.986974
1.00174
1.01986
0.954651
1.00163
0.924159
0.974911
0.979578
0.829383
0.844227
0.840218
0.835166
0.800662
0.828194
0.763674
0.736971
0.65735
0.665429
0.636433
0.626848
0.63164
0.62572
0.617404
0.623549
0.616316
0.686046
0.712735
0.731396
0.746345
0.78957
0.781863
0.85009
0.827952
0.872346
0.85123
0.898252
0.855586
0.902348
0.877896
0.898617
0.885665
0.920219
0.900618
0.931334
0.904889
0.93577
0.913101
0.937848
0.915355
0.947581
0.919434
0.951332
0.920119
0.948956
0.922164
0.94528
0.921664
0.955697
0.920434
0.96169
0.918719
0.960675
0.916021
0.95426
0.913074
0.944427
0.931726
0.954158
0.953204
0.968454
0.989927
1.0148
1.01474
1.03058
1.00246
1.0285
0.997986
1.036
1.00769
1.00658
0.984318
0.982481
0.960993
0.955515
0.943178
0.907185
0.899829
0.750505
0.739936
0.821789
0.839169
0.781269
0.780957
0.745164
0.587439
0.469052
0.496129
0.531207
0.743398
0.788111
0.930456
1.06861
1.09081
1.15417
1.25933
1.24826
1.32763
1.28617
1.25193
1.15283
1.20109
1.16053
1.15225
1.15525
1.17855
1.14045
1.17877
1.16327
1.16896
1.16502
1.14331
1.11742
1.13628
1.08079
1.05864
1.06474
1.11279
1.12883
1.15006
1.14277
1.14931
1.15152
1.12755
1.1154
1.10543
1.12991
1.08116
1.08968
0.964042
1.00357
0.931036
0.97882
0.950695
1.00772
0.968662
1.00532
0.97834
1.01996
1.05551
1.07386
1.07349
1.23356
1.25826
1.32501
1.33109
1.35976
1.36609
1.35597
1.31602
1.36511
1.34768
1.32278
1.31119
1.33737
1.33365
1.32481
1.30143
1.30323
1.21817
1.22458
1.20867
1.16355
1.09682
1.09997
0.985979
0.970272
0.933034
0.919741
0.909176
0.917581
0.873894
0.895938
0.876402
0.901054
0.804785
0.821589
0.708821
0.603852
0.458437
0.44346
0.404616
0.446375
0.393831
0.430595
0.414556
0.415902
0.432265
0.451815
0.468596
0.564327
0.589351
0.649922
0.661898
0.745197
0.79046
0.825795
0.773943
0.816427
0.793353
0.81881
0.789632
0.78976
0.784927
0.744148
0.729958
0.721319
0.725984
0.682766
0.712702
0.648373
0.669438
0.601225
0.662051
0.608012
0.6189
0.595726
0.633304
0.611099
0.585533
0.603748
0.631691
0.622445
0.646441
0.649243
0.657474
0.676115
0.667369
0.673702
0.676166
0.694674
0.652179
0.690848
0.661781
0.673735
0.687216
0.665079
0.70854
0.686215
0.683648
0.654888
0.659339
0.657977
0.663217
0.705922
0.710564
0.703109
0.67236
0.759505
0.752147
0.761483
0.751141
0.761928
0.744933
0.724017
0.741162
0.723044
0.796986
0.749844
0.841047
0.820061
0.888052
0.861612
0.917364
0.942422
0.993633
0.994513
1.04793
1.02013
1.03113
0.969535
1.03948
0.932594
0.980437
0.915158
0.936015
0.898214
0.919418
0.868484
0.818892
0.754852
0.756679
0.746279
0.726408
0.742621
0.650336
0.619398
0.606865
0.582182
0.58502
0.590651
0.553466
0.563192
0.576969
0.589592
0.652486
0.689507
0.699203
0.702956
0.729442
0.747158
0.800383
0.774158
0.83523
0.777235
0.804371
0.822087
0.843608
0.827605
0.872687
0.846849
0.864162
0.849559
0.869164
0.853239
0.872483
0.855695
0.886299
0.876194
0.888348
0.864765
0.890997
0.875254
0.893986
0.874554
0.896261
0.87168
0.886666
0.868243
0.884186
0.866494
0.881768
0.865763
0.883901
0.856402
0.87639
0.8497
0.888284
0.87327
0.934033
0.946554
0.968447
0.975976
0.991131
0.986814
1.00043
0.982587
0.98961
0.967753
0.977463
0.938639
0.946976
0.932679
0.947405
0.941918
0.953911
0.905258
0.802869
0.842677
0.840611
0.748374
0.786039
0.77822
0.778585
0.651837
0.410387
0.441419
0.542458
0.744068
0.865144
0.945563
1.02943
1.09644
1.17557
1.22274
1.23576
1.24322
1.28628
1.16603
1.17853
1.13063
1.15073
1.13181
1.16713
1.14707
1.15936
1.13506
1.15614
1.15846
1.13924
1.13273
1.1083
1.10024
1.04984
1.04265
1.07906
1.1231
1.13354
1.1566
1.16871
1.15689
1.14785
1.17196
1.11623
1.14838
1.11981
1.09983
1.09604
1.10315
1.02775
1.00835
0.94086
0.995586
0.945178
0.995463
0.959378
0.996932
0.987493
1.03918
1.05556
1.18101
1.21845
1.28177
1.2727
1.31681
1.36072
1.36256
1.36388
1.40386
1.35922
1.37371
1.34307
1.34856
1.32279
1.34943
1.31249
1.29472
1.29851
1.29644
1.21666
1.2185
1.18794
1.10311
1.10124
1.09109
0.975498
0.952249
0.932392
0.920587
0.917154
0.927785
0.886181
0.909881
0.843991
0.860526
0.777436
0.773649
0.633706
0.538094
0.424618
0.439812
0.431362
0.446395
0.4187
0.445211
0.415149
0.437881
0.433712
0.491458
0.534337
0.527761
0.578384
0.657353
0.694228
0.732893
0.757795
0.789995
0.799293
0.827954
0.797979
0.817395
0.743912
0.776967
0.740468
0.728127
0.720754
0.711649
0.727016
0.68907
0.708471
0.599312
0.665943
0.600831
0.678974
0.617996
0.67199
0.647625
0.63979
0.609376
0.666035
0.628241
0.645153
0.640231
0.646031
0.652449
0.650301
0.6864
0.690841
0.689334
0.693655
0.68502
0.683488
0.696529
0.689367
0.680017
0.67362
0.672618
0.692709
0.693798
0.678386
0.658875
0.654257
0.70134
0.67749
0.679642
0.682033
0.676623
0.729967
0.734559
0.752444
0.752921
0.801504
0.787939
0.769721
0.784783
0.838606
0.777719
0.851811
0.825313
0.883407
0.827724
0.878272
0.87541
0.946693
0.933805
1.01519
1.00355
1.05247
0.993928
1.02892
0.981626
1.02324
0.963919
0.972601
0.922078
0.985669
0.971507
0.967435
0.892867
0.842224
0.827924
0.78347
0.827333
0.764885
0.732458
0.650692
0.632293
0.64272
0.604257
0.608424
0.591562
0.584002
0.615875
0.615559
0.676033
0.70457
0.722952
0.758672
0.804632
0.807764
0.837721
0.836715
0.85939
0.854247
0.882112
0.870017
0.905336
0.876221
0.917232
0.886812
0.918357
0.889139
0.934175
0.904223
0.929935
0.903261
0.929523
0.91048
0.92316
0.92174
0.933342
0.916998
0.941898
0.924501
0.937072
0.920757
0.948388
0.919341
0.947357
0.918556
0.946492
0.911885
0.934698
0.900252
0.922675
0.894129
0.928048
0.914503
0.94289
1.01107
1.01012
1.01822
1.01635
1.01203
1.03915
1.02064
1.04081
1.00941
1.00516
0.967498
0.972115
0.964212
0.961578
0.949677
0.954327
0.971384
0.763708
0.869349
0.835625
0.852733
0.804765
0.793148
0.753125
0.637285
0.453918
0.430062
0.523266
0.778195
0.883301
0.924949
0.939532
1.02755
1.14108
1.21854
1.23506
1.25524
1.25651
1.17267
1.15003
1.16172
1.10712
1.15267
1.10797
1.15155
1.15277
1.154
1.14765
1.17398
1.14132
1.11705
1.11988
1.09459
1.07355
1.06091
1.06069
1.10106
1.1212
1.13799
1.15763
1.16776
1.15286
1.14881
1.1269
1.13147
1.12269
1.09557
1.09812
1.09898
1.09761
1.06341
0.973506
0.939689
0.990338
0.975005
1.01058
1.00335
1.03139
1.04449
1.06294
1.20261
1.20292
1.25704
1.30679
1.32122
1.34243
1.37921
1.3889
1.37196
1.41109
1.36434
1.3662
1.35418
1.34116
1.33143
1.3465
1.30208
1.31122
1.31681
1.21274
1.19975
1.20923
1.10281
1.09817
1.08576
0.9956
0.945742
0.938491
0.898002
0.925887
0.890804
0.908715
0.886964
0.922092
0.835018
0.818407
0.736348
0.696794
0.497693
0.499352
0.434211
0.420646
0.405673
0.420804
0.415174
0.425065
0.418237
0.467371
0.478501
0.500694
0.554718
0.663682
0.669909
0.713006
0.749588
0.815958
0.803769
0.820705
0.827459
0.818374
0.799549
0.786865
0.773627
0.776576
0.72679
0.688341
0.722519
0.68126
0.708632
0.618549
0.674778
0.588875
0.672714
0.601478
0.626765
0.609496
0.666225
0.576618
0.638795
0.5848
0.60923
0.609609
0.633743
0.627114
0.627788
0.65836
0.644975
0.656694
0.648528
0.673152
0.662517
0.665976
0.640536
0.653645
0.630939
0.651165
0.67085
0.671161
0.688611
0.647664
0.673367
0.654705
0.652634
0.678785
0.676415
0.664754
0.650965
0.661855
0.660952
0.688478
0.72618
0.707341
0.721616
0.727616
0.745429
0.753822
0.79079
0.751499
0.847932
0.824365
0.884532
0.856245
0.93658
0.928289
0.983871
0.982887
1.03368
1.02991
1.06983
0.995981
1.03111
0.975415
1.01105
0.922322
0.951919
0.901407
0.947951
0.896942
0.893762
0.87619
0.873257
0.770711
0.749915
0.697603
0.677449
0.63363
0.600381
0.584384
0.57769
0.596649
0.541492
0.555625
0.561689
0.600231
0.616538
0.664079
0.669729
0.719088
0.742295
0.736103
0.794123
0.764207
0.808059
0.781453
0.8286
0.799721
0.840746
0.840005
0.881473
0.85237
0.860782
0.834624
0.895369
0.874657
0.892511
0.872507
0.893632
0.881784
0.904948
0.885065
0.912983
0.890435
0.908413
0.881079
0.9089
0.879441
0.903628
0.884577
0.907949
0.871337
0.90061
0.869548
0.885514
0.85502
0.881893
0.84423
0.865434
0.852035
0.916904
0.949995
1.0191
1.01712
1.03463
1.00972
1.03959
1.03055
1.02041
0.992452
1.00557
0.945609
0.971589
0.942426
0.949969
0.909854
0.977788
0.902343
0.838382
0.780929
0.86998
0.746469
0.826486
0.803632
0.764024
0.653055
0.594076
0.467057
0.522207
0.6983
0.852467
0.918211
0.951862
1.00347
1.14051
1.18068
1.22068
1.19883
1.22957
1.12085
1.1186
1.10402
1.13991
1.09573
1.12796
1.09412
1.11594
1.11129
1.11727
1.11478
1.12651
1.11255
1.12321
1.08042
1.0674
1.05678
1.04393
1.05801
1.12301
1.13372
1.15374
1.16514
1.15514
1.14604
1.13637
1.14181
1.13843
1.13835
1.10095
1.09369
1.10344
1.1105
1.01739
0.996505
0.968865
0.999783
0.992053
1.00614
0.994482
1.04333
1.15957
1.17906
1.21911
1.26906
1.2691
1.32323
1.3305
1.38913
1.39734
1.40986
1.40963
1.43225
1.39127
1.38218
1.33373
1.36876
1.3429
1.33822
1.30008
1.31387
1.23359
1.21771
1.20402
1.13296
1.07534
1.08301
1.03545
0.978127
0.941931
0.91905
0.917604
0.898928
0.925433
0.93332
0.882726
0.861683
0.799459
0.833982
0.633415
0.565215
0.488234
0.508805
0.429216
0.427514
0.40957
0.438041
0.435162
0.439663
0.441428
0.508863
0.566953
0.629967
0.650812
0.714263
0.725771
0.820149
0.809484
0.830683
0.771991
0.85668
0.842402
0.803421
0.770336
0.789524
0.789889
0.684493
0.714208
0.692804
0.69019
0.636019
0.680722
0.605047
0.668271
0.600098
0.658004
0.563125
0.639381
0.56884
0.603217
0.562701
0.614903
0.551784
0.577439
0.591722
0.609939
0.604326
0.599433
0.62381
0.61548
0.610706
0.596454
0.624028
0.628187
0.632002
0.62954
0.624118
0.607264
0.661455
0.6391
0.648758
0.629672
0.62266
0.621736
0.623712
0.643799
0.61935
0.63478
0.630474
0.613359
0.637321
0.643411
0.620919
0.620013
0.668648
0.657751
0.671344
0.678798
0.681545
0.727741
0.732203
0.794916
0.800326
0.794083
0.851352
0.897931
0.868111
0.927782
0.944401
0.967645
0.978081
1.02627
0.959642
1.07068
0.968658
0.969281
0.956798
0.961171
0.972132
0.903086
0.905794
0.850685
0.829311
0.808339
0.772004
0.704915
0.653109
0.634942
0.635441
0.582736
0.607916
0.540367
0.52663
0.530135
0.545445
0.559911
0.590288
0.658034
0.674082
0.723127
0.743388
0.780238
0.801777
0.809348
0.82281
0.836882
0.86476
0.85083
0.875681
0.864651
0.895114
0.870934
0.895216
0.881853
0.904857
0.891834
0.927484
0.894508
0.920961
0.892013
0.9086
0.896897
0.913229
0.895237
0.922928
0.89536
0.920563
0.898667
0.926359
0.895248
0.927095
0.901179
0.928127
0.895678
0.916987
0.884539
0.908104
0.878787
0.891856
0.877599
0.911575
0.955232
0.973757
1.03678
1.03572
1.0524
1.05753
1.06819
1.0649
1.044
1.03275
1.01433
1.00164
1.0048
0.993916
0.971528
0.907414
0.951577
0.816694
0.827122
0.78932
0.763682
0.787172
0.799118
0.812099
0.621968
0.588878
0.46073
0.526052
0.72144
0.807415
0.88393
0.972956
1.05839
1.14915
1.17793
1.19815
1.22167
1.17843
1.14942
1.06427
1.08247
1.10258
1.11548
1.08682
1.12665
1.08761
1.10547
1.10331
1.07426
1.10006
1.11407
1.10542
1.09265
1.09474
1.06663
1.05683
1.05079
1.0966
1.12102
1.14044
1.15979
1.16429
1.1977
1.16474
1.18994
1.1721
1.17237
1.17376
1.14818
1.15192
1.12672
1.14387
1.04739
1.06946
0.99812
1.01941
1.03284
1.04397
1.12929
1.21267
1.23415
1.25268
1.27441
1.30135
1.30604
1.34164
1.3633
1.41563
1.4043
1.41321
1.42024
1.40911
1.36253
1.3844
1.35436
1.36257
1.35007
1.32428
1.31459
1.32325
1.21635
1.23231
1.17363
1.12557
1.10826
1.09265
0.98648
0.950555
0.918937
0.936348
0.914446
0.951047
0.936958
0.949752
0.854794
0.862774
0.753826
0.718683
0.519551
0.521199
0.445257
0.457605
0.395359
0.423768
0.420095
0.437272
0.416439
0.443927
0.487277
0.508548
0.514614
0.572649
0.585855
0.619904
0.670882
0.750307
0.757983
0.805085
0.810537
0.77254
0.794197
0.78668
0.710987
0.73109
0.688069
0.662647
0.688139
0.714506
0.67649
0.671708
0.655864
0.622446
0.706105
0.573233
0.686109
0.622812
0.663064
0.603591
0.678196
0.602147
0.644314
0.602543
0.6469
0.58807
0.626735
0.638997
0.618753
0.640314
0.62395
0.627051
0.6143
0.593377
0.643277
0.655152
0.643159
0.683708
0.666106
0.654864
0.697564
0.640126
0.665524
0.634083
0.6509
0.635427
0.682371
0.648594
0.639488
0.6391
0.66982
0.675336
0.704177
0.712118
0.70107
0.765124
0.756258
0.766571
0.833218
0.810452
0.844105
0.849615
0.895425
0.884816
0.928331
0.954551
1.01654
0.967597
1.06014
0.995609
1.05811
0.952356
1.04546
0.985416
1.0532
1.01776
0.971885
0.971665
0.966092
0.95309
0.918573
0.892997
0.872962
0.849244
0.867214
0.832156
0.6806
0.71334
0.670349
0.664813
0.620172
0.581524
0.556651
0.578016
0.584117
0.609424
0.64412
0.672487
0.713535
0.769311
0.772948
0.780412
0.81945
0.81241
0.839902
0.856097
0.860865
0.867882
0.862989
0.881563
0.883988
0.890512
0.886434
0.899471
0.892036
0.913927
0.907001
0.919687
0.900805
0.929163
0.896065
0.931706
0.899464
0.907547
0.89717
0.935507
0.903783
0.932685
0.904317
0.933749
0.898611
0.936391
0.897345
0.9325
0.883825
0.920433
0.873906
0.912338
0.871058
0.903221
0.897898
0.950349
0.984312
1.00125
1.03526
1.04992
1.05302
1.05091
1.05169
1.03794
1.01305
0.985461
0.971734
0.971981
0.963154
0.969836
0.987071
0.877605
0.813751
0.756341
0.803905
0.776814
0.799005
0.815789
0.794205
0.579939
0.456291
0.51798
0.521532
0.691857
0.861266
0.86917
1.06135
1.04592
1.14692
1.17158
1.17165
1.15729
1.11243
1.11424
1.10587
1.04406
1.07482
1.08699
1.11919
1.07646
1.10024
1.07141
1.10571
1.05259
1.09419
1.08749
1.08988
1.09474
1.06655
1.07747
1.04508
1.05069
1.06852
1.11526
1.1275
1.13424
1.18306
1.18861
1.19162
1.20021
1.20225
1.20153
1.17306
1.19994
1.16936
1.18515
1.15071
1.17462
1.09071
1.13922
1.12041
1.11465
1.14835
1.18742
1.22263
1.23829
1.26358
1.29999
1.32824
1.31549
1.35647
1.38379
1.40963
1.42913
1.42041
1.42323
1.4051
1.39854
1.39844
1.38941
1.36431
1.35823
1.35094
1.3443
1.3243
1.25738
1.21657
1.21012
1.1347
1.12813
1.11757
1.01551
0.968956
0.970496
0.954253
0.950489
0.929197
0.966704
0.936508
0.912282
0.819592
0.813346
0.67282
0.656244
0.51045
0.479357
0.449034
0.433941
0.409504
0.419303
0.423793
0.431698
0.429708
0.458917
0.455494
0.479371
0.504736
0.572773
0.607127
0.710499
0.739269
0.730612
0.789554
0.836735
0.796962
0.823526
0.779898
0.749601
0.69597
0.760909
0.671926
0.697265
0.677967
0.667572
0.677676
0.635417
0.720852
0.634291
0.692573
0.597991
0.673073
0.611133
0.687439
0.581837
0.67032
0.607006
0.661536
0.589533
0.652941
0.594289
0.668861
0.637613
0.645708
0.599355
0.612473
0.625366
0.610831
0.611557
0.63934
0.638066
0.678711
0.646352
0.671994
0.654917
0.68886
0.636371
0.704577
0.678732
0.694367
0.656238
0.662787
0.647454
0.661831
0.633986
0.729825
0.690652
0.719246
0.694327
0.747418
0.736256
0.823475
0.804839
0.83951
0.813935
0.884244
0.865183
0.904707
0.92249
0.981138
0.987396
1.04926
1.00484
1.07815
1.00645
1.08101
0.995894
1.05144
1.00792
1.04199
0.973013
0.985533
0.989379
0.960201
0.923872
0.911873
0.880374
0.849405
0.836565
0.766456
0.739065
0.678406
0.628485
0.607965
0.611381
0.602285
0.577438
0.578512
0.585635
0.584492
0.62188
0.675949
0.693528
0.776633
0.742096
0.803962
0.797809
0.833328
0.81484
0.848171
0.841011
0.861933
0.843084
0.86287
0.885651
0.886043
0.890919
0.890378
0.908285
0.899484
0.910201
0.908114
0.913705
0.904059
0.910854
0.902622
0.908443
0.898873
0.904008
0.895862
0.899295
0.896305
0.90206
0.901959
0.904492
0.889348
0.897807
0.884457
0.881462
0.868705
0.885223
0.862687
0.877722
0.863564
0.897933
0.918979
0.946472
0.982865
1.00069
1.02704
1.03755
1.03824
1.0362
1.03753
1.0062
0.999185
0.952133
0.979405
0.949826
0.960519
0.979758
0.945699
0.822645
0.827009
0.802451
0.818506
0.791789
0.78028
0.686522
0.618251
0.388295
0.44448
0.518315
0.699984
0.892595
0.908269
1.04199
1.1229
1.10695
1.20131
1.17376
1.19628
1.11353
1.08111
1.06089
1.04732
1.03984
1.10791
1.08155
1.08667
1.07077
1.11567
1.07092
1.06907
1.06725
1.08494
1.09923
1.11497
1.09153
1.06332
1.05
1.05589
1.08871
1.11223
1.14587
1.17245
1.15872
1.21253
1.21594
1.20726
1.21906
1.21479
1.18936
1.159
1.19458
1.18932
1.18414
1.17426
1.18677
1.17911
1.184
1.1819
1.14848
1.20961
1.25231
1.26726
1.31353
1.34731
1.31795
1.35235
1.35369
1.37723
1.41915
1.44971
1.4508
1.43473
1.43003
1.41789
1.4109
1.41325
1.39269
1.37959
1.3744
1.33626
1.33955
1.35425
1.2562
1.23833
1.17325
1.13634
1.10392
1.08829
0.990627
0.966078
0.967857
0.915803
0.972696
0.960049
0.982747
0.823137
0.875601
0.792691
0.783656
0.6367
0.575923
0.489638
0.52718
0.456601
0.442678
0.4377
0.449241
0.450064
0.447588
0.449649
0.468242
0.459839
0.539352
0.571067
0.583102
0.616558
0.622745
0.68551
0.801671
0.707644
0.782328
0.69446
0.750335
0.740831
0.704281
0.618849
0.597027
0.608591
0.672289
0.650656
0.654422
0.662945
0.658458
0.722737
0.624291
0.702925
0.638067
0.708945
0.592188
0.669078
0.623045
0.686706
0.599751
0.666221
0.626886
0.68927
0.620159
0.665091
0.605035
0.662196
0.640372
0.682159
0.65061
0.659434
0.643263
0.716626
0.661756
0.70773
0.685509
0.743502
0.645078
0.706915
0.680189
0.758988
0.714444
0.743094
0.747043
0.716518
0.707299
0.789046
0.76099
0.815327
0.791441
0.802976
0.785564
0.815634
0.796555
0.822809
0.813363
0.862861
0.840155
0.901466
0.899298
0.945062
0.953669
1.03797
1.00794
1.06347
1.05574
1.0843
1.06188
1.05084
1.01708
1.06573
1.01241
1.05086
0.996987
1.0008
1.00284
0.981857
0.994627
0.96554
0.943817
0.850392
0.816484
0.749852
0.727027
0.706975
0.672161
0.600177
0.695398
0.62514
0.635537
0.614611
0.62851
0.648979
0.727019
0.729277
0.813705
0.784216
0.821186
0.824675
0.849925
0.852127
0.883998
0.877799
0.90708
0.884844
0.892546
0.888148
0.910933
0.897083
0.918975
0.90727
0.916456
0.901809
0.919537
0.915432
0.919618
0.912097
0.921056
0.909155
0.909914
0.912027
0.911243
0.905958
0.908912
0.913227
0.918806
0.916233
0.91453
0.908099
0.903813
0.906797
0.897064
0.892688
0.890625
0.883773
0.892919
0.915173
0.918284
0.962366
0.972616
1.01154
0.998621
1.04128
1.0284
1.05408
1.0357
1.03198
0.99712
1.0162
0.999823
0.99364
0.980271
0.957741
0.851511
0.840114
0.751129
0.819458
0.839427
0.856148
0.819306
0.774317
0.664905
0.536302
0.462614
0.530146
0.647901
0.849231
0.948782
0.964852
1.09906
1.17536
1.18098
1.21899
1.17749
1.16637
1.0892
1.08696
1.05378
1.07383
1.05821
1.0588
1.07383
1.12104
1.10148
1.07869
1.04641
1.07559
1.08759
1.09686
1.1205
1.08557
1.09379
1.09192
1.11356
1.12328
1.12624
1.14121
1.17293
1.17459
1.18953
1.21657
1.23858
1.23769
1.21761
1.2393
1.21667
1.24104
1.18453
1.22812
1.202
1.22236
1.17073
1.23355
1.22416
1.2241
1.22565
1.25292
1.22666
1.321
1.33427
1.36331
1.35705
1.37226
1.36337
1.39651
1.41583
1.43229
1.45315
1.43625
1.45045
1.4378
1.44694
1.43512
1.39695
1.38407
1.37383
1.35205
1.3689
1.24783
1.26308
1.23151
1.14318
1.13418
1.13159
1.02954
0.979719
0.98432
0.949851
0.961846
0.984057
0.945937
0.953839
0.862607
0.889795
0.815191
0.68728
0.605609
0.552228
0.50939
0.513591
0.470458
0.465364
0.465485
0.484326
0.461979
0.477678
0.489215
0.543695
0.56474
0.591727
0.62203
0.617745
0.690678
0.803724
0.78046
0.754166
0.815901
0.792655
0.815802
0.766929
0.724835
0.703151
0.715008
0.611127
0.636665
0.588537
0.630731
0.611169
0.60054
0.536955
0.609694
0.557337
0.64502
0.565497
0.596891
0.556923
0.616484
0.580221
0.599039
0.586692
0.625555
0.560312
0.605259
0.570485
0.573569
0.553175
0.575595
0.55986
0.550604
0.565921
0.558686
0.573554
0.607282
0.591122
0.593007
0.626673
0.638053
0.622602
0.657542
0.630148
0.658975
0.622221
0.629354
0.566649
0.613121
0.593766
0.60615
0.594317
0.628396
0.63196
0.601086
0.594457
0.640048
0.632237
0.668697
0.668708
0.693659
0.722558
0.738878
0.809591
0.776612
0.849014
0.837112
0.922904
0.85708
0.98513
0.892678
0.874399
0.960856
0.936236
0.958004
0.898738
0.887731
0.876925
0.885695
0.814504
0.844901
0.841668
0.793155
0.758512
0.738371
0.71576
0.660338
0.649981
0.624752
0.609643
0.567873
0.586424
0.59355
0.590192
0.588439
0.618645
0.668563
0.675485
0.744258
0.748558
0.775517
0.800319
0.807515
0.837557
0.852628
0.882099
0.874238
0.890972
0.879184
0.899529
0.893149
0.91465
0.900541
0.908383
0.907361
0.906352
0.889568
0.910889
0.88453
0.910993
0.881353
0.921499
0.8821
0.919902
0.873307
0.901634
0.871943
0.901579
0.871664
0.896061
0.867054
0.885351
0.859701
0.882188
0.854023
0.878711
0.844343
0.884683
0.851648
0.887444
0.895969
0.925461
0.936654
0.949724
0.977395
0.983587
1.0147
0.99794
1.01867
1.00033
1.01071
1.00609
1.01033
0.990047
0.993972
0.983681
0.930034
0.818911
0.863197
0.789821
0.798747
0.809968
0.796369
0.780478
0.635138
0.593956
0.447878
0.533641
0.692156
0.789283
0.909176
0.984773
1.09706
1.14438
1.20904
1.22026
1.23232
1.10956
1.11895
1.07145
1.07283
1.03709
1.05739
1.03519
1.07
1.04979
1.08398
1.04041
1.06199
1.05681
1.09575
1.10982
1.11145
1.10961
1.1089
1.09658
1.0885
1.07504
1.07068
1.09094
1.15414
1.18402
1.20939
1.20798
1.23221
1.22736
1.27535
1.23938
1.23834
1.2248
1.242
1.19407
1.22312
1.22012
1.1749
1.22434
1.21872
1.21708
1.23137
1.24781
1.2713
1.3105
1.34122
1.34234
1.3554
1.34716
1.3504
1.39567
1.39666
1.46642
1.49294
1.47753
1.45355
1.4845
1.45298
1.43454
1.39851
1.39539
1.38405
1.36922
1.3603
1.27417
1.27347
1.26213
1.18997
1.10615
1.11364
1.03332
0.949099
0.984402
0.954455
0.983285
0.974057
0.997742
0.949152
0.891108
0.845918
0.849164
0.69917
0.67523
0.551533
0.577008
0.519203
0.565473
0.541641
0.540205
0.537204
0.592246
0.607739
0.597863
0.623078
0.652348
0.644933
0.648435
0.653869
0.658737
0.618065
0.653237
0.590102
0.57527
0.558565
0.515429
0.45627
0.436789
0.35217
0.33055
0.272285
0.270114
0.254443
0.301822
0.406057
0.515371
0.629965
0.600195
0.690167
0.609726
0.650483
0.544524
0.658543
0.560158
0.646006
0.585657
0.638485
0.588634
0.65288
0.568524
0.624403
0.556106
0.61396
0.552695
0.588755
0.558814
0.609185
0.603007
0.608
0.601343
0.618815
0.586793
0.638881
0.608352
0.660141
0.605401
0.659087
0.642143
0.713058
0.626221
0.668966
0.617817
0.655993
0.655541
0.703327
0.701515
0.68015
0.656435
0.73304
0.710023
0.73589
0.773663
0.826671
0.843135
0.87693
0.873415
0.918881
0.938967
0.989067
0.94815
1.02731
0.969122
1.02878
0.977676
1.04293
0.985509
1.05961
0.977643
1.02121
0.967043
0.983879
0.967123
0.968407
0.95271
0.924476
0.917767
0.865801
0.842153
0.772868
0.778931
0.73006
0.712646
0.713522
0.694601
0.604071
0.628635
0.579599
0.603138
0.642783
0.670821
0.689205
0.759213
0.76674
0.79388
0.810046
0.785535
0.82164
0.823174
0.850989
0.847947
0.860525
0.835517
0.877094
0.864036
0.887491
0.875262
0.897687
0.882942
0.899429
0.900103
0.893554
0.880763
0.905276
0.892643
0.895963
0.891956
0.894465
0.888068
0.896859
0.89981
0.882037
0.874866
0.880781
0.894923
0.871594
0.853665
0.860917
0.864499
0.850709
0.842225
0.845703
0.842464
0.899684
0.905766
0.933001
0.933507
0.955198
0.981578
1.00346
1.02156
1.02969
0.994028
0.99295
0.97136
0.980322
0.957001
0.963376
0.976858
0.980797
0.889428
0.853663
0.740251
0.823719
0.805784
0.81934
0.809614
0.778905
0.608623
0.470082
0.491824
0.52341
0.668426
0.858716
0.873088
1.02977
1.13451
1.17991
1.17866
1.2083
1.21824
1.13703
1.08696
1.08044
1.08822
1.09141
1.04847
1.07001
1.05375
1.06831
1.0699
1.05794
1.05723
1.08211
1.09148
1.09198
1.12851
1.15883
1.07605
1.08203
1.09296
1.10979
1.07735
1.10527
1.11841
1.1456
1.1421
1.16121
1.21842
1.23108
1.2523
1.24226
1.23297
1.26786
1.23085
1.2499
1.2298
1.23466
1.1818
1.18021
1.22709
1.22641
1.22228
1.199
1.30621
1.30883
1.35776
1.39124
1.38278
1.3691
1.35637
1.35961
1.4222
1.45264
1.4971
1.47685
1.48055
1.46169
1.49163
1.44407
1.44162
1.42229
1.39668
1.38741
1.37818
1.34483
1.27311
1.25819
1.18615
1.12275
1.1324
1.1318
1.04746
1.01564
0.965426
1.0201
1.06278
1.08192
1.07002
1.00687
0.976058
0.950377
0.852324
0.703908
0.688792
0.691601
0.700258
0.687564
0.689945
0.661907
0.676583
0.62631
0.697149
0.642654
0.694102
0.661115
0.71581
0.648598
0.71786
0.69715
0.663102
0.600769
0.643894
0.617661
0.656539
0.537237
0.535935
0.431713
0.451313
0.425497
0.415116
0.357088
0.332386
0.355188
0.312132
0.346672
0.322421
0.358237
0.315311
0.365329
0.297892
0.320293
0.313361
0.342626
0.337441
0.360651
0.337509
0.335581
0.372015
0.36692
0.394904
0.383526
0.501522
0.570663
0.525002
0.570424
0.571184
0.593632
0.618865
0.636985
0.595142
0.627157
0.603736
0.617004
0.586287
0.64041
0.601988
0.645217
0.604525
0.683318
0.613223
0.635152
0.644638
0.665239
0.673387
0.669032
0.653448
0.655442
0.649893
0.694978
0.720431
0.798231
0.758625
0.845274
0.845352
0.856664
0.887917
0.953344
0.925548
0.998043
0.966184
1.0068
0.98238
1.03127
0.968249
1.02543
0.97263
1.01312
0.956174
0.991637
0.959933
0.991031
0.945814
0.933542
0.924257
0.893701
0.848523
0.809603
0.787844
0.740903
0.733999
0.696069
0.70453
0.678871
0.693974
0.618686
0.616741
0.618869
0.653137
0.666659
0.682883
0.772682
0.759075
0.776765
0.776507
0.827131
0.790262
0.850331
0.838389
0.863426
0.858084
0.873953
0.863991
0.878507
0.868108
0.893601
0.890674
0.907768
0.896779
0.904861
0.889248
0.915033
0.900943
0.908989
0.899345
0.918213
0.877712
0.899748
0.894674
0.901657
0.88704
0.890563
0.892835
0.883581
0.875071
0.871955
0.861507
0.853592
0.843002
0.860018
0.844642
0.846254
0.887888
0.923562
0.918689
0.937818
0.941953
0.95958
0.973471
1.01505
1.00027
1.00928
0.975364
0.978359
0.965531
0.984775
0.957807
0.990717
0.974625
0.955249
0.834345
0.808458
0.790583
0.861408
0.82671
0.784814
0.744352
0.591896
0.358247
0.471579
0.551763
0.700798
0.864855
0.999714
0.999735
1.12642
1.1867
1.25109
1.21158
1.20221
1.11257
1.1133
1.07892
1.0866
1.09433
1.11379
1.07378
1.0999
1.07043
1.04022
1.0199
1.09476
1.05009
1.05155
1.11169
1.10877
1.12972
1.10186
1.0755
1.06662
1.11347
1.12254
1.11529
1.11879
1.15174
1.15853
1.18393
1.20276
1.19194
1.26192
1.24361