/*--------------------------------*- C++ -*----------------------------------*\
| =========                 |                                                 |
| \\      /  F ield         | OpenFOAM: The Open Source CFD Toolbox           |
|  \\    /   O peration     | Version:  2312                                  |
|   \\  /    A nd           | Website:  www.openfoam.com                      |
|    \\/     M anipulation  |                                                 |
\*---------------------------------------------------------------------------*/
FoamFile
{
    version     2.0;
    format      ascii;
    arch        "LSB;label=32;scalar=64";
    class       volScalarField;
    location    "20000";
    object      alphat;
}
// * * * * * * * * * * * * * * * * * * * * * * * * * * * * * * * * * * * * * //

dimensions      [0 2 -1 0 0 0 0];

internalField   nonuniform List<scalar> 
29400
(
1.56908e-08
2.91207e-08
5.01716e-08
7.38615e-08
9.84091e-08
1.20947e-07
1.40749e-07
1.5764e-07
1.71815e-07
1.83632e-07
1.93457e-07
2.01629e-07
2.08441e-07
2.14142e-07
2.18934e-07
2.22983e-07
2.26423e-07
2.29362e-07
2.31886e-07
2.3406e-07
2.35941e-07
2.37575e-07
2.39001e-07
2.40249e-07
2.41344e-07
2.42308e-07
2.43159e-07
2.43918e-07
2.44588e-07
2.45179e-07
1.41264e-06
1.27946e-06
1.30112e-06
1.3968e-06
1.4851e-06
1.5585e-06
1.61931e-06
1.6725e-06
1.72157e-06
1.76838e-06
1.81383e-06
1.85826e-06
1.90173e-06
1.94416e-06
1.9854e-06
2.02527e-06
2.0636e-06
2.10026e-06
2.1351e-06
2.16803e-06
2.19902e-06
2.22806e-06
2.25518e-06
2.28042e-06
2.30385e-06
2.32556e-06
2.34564e-06
2.36422e-06
2.38126e-06
2.39713e-06
1.99934e-05
1.81859e-05
1.80333e-05
1.8644e-05
1.91345e-05
1.94591e-05
1.96695e-05
1.98251e-05
1.99625e-05
2.00996e-05
2.02442e-05
2.03986e-05
2.05621e-05
2.0733e-05
2.09087e-05
2.10866e-05
2.12642e-05
2.14392e-05
2.16097e-05
2.17739e-05
2.1931e-05
2.20801e-05
2.22207e-05
2.23527e-05
2.24761e-05
2.25911e-05
2.26979e-05
2.27971e-05
2.28881e-05
2.29732e-05
7.46565e-05
6.77371e-05
6.50364e-05
6.58473e-05
6.67434e-05
6.73996e-05
6.7849e-05
6.81765e-05
6.8438e-05
6.86651e-05
6.88767e-05
6.90846e-05
6.92966e-05
6.95171e-05
6.97477e-05
6.9988e-05
7.0236e-05
7.04889e-05
7.07431e-05
7.09955e-05
7.1243e-05
7.14834e-05
7.17148e-05
7.19359e-05
7.21456e-05
7.23436e-05
7.25297e-05
7.27041e-05
7.28655e-05
7.30214e-05
0.000155824
0.000130731
9.86073e-05
9.85071e-05
0.000101981
0.000105777
0.000109138
0.00011187
0.000113958
0.000115475
0.000116545
0.000117312
0.000117916
0.000118466
0.000119043
0.000119695
0.000120441
0.000121284
0.000122211
0.000123207
0.000124251
0.000125322
0.000126402
0.000127476
0.000128531
0.000129556
0.000130546
0.000131495
0.000132398
0.000133614
0.000214375
0.000146765
0.000113036
0.000113391
0.000117878
0.000122845
0.000127358
0.000131165
0.000134215
0.000136573
0.000138378
0.000139793
0.000140977
0.000142063
0.000143146
0.000144282
0.0001455
0.000146805
0.000148186
0.000149624
0.000151098
0.000152586
0.000154069
0.000155529
0.000156953
0.000158329
0.000159652
0.000160914
0.000162112
0.000163699
0.000225368
0.000159166
0.000123315
0.000123916
0.000129402
0.000135656
0.000141517
0.000146601
0.000150802
0.00015417
0.00015685
0.000159024
0.000160873
0.000162552
0.000164172
0.000165806
0.000167491
0.000169236
0.000171043
0.000172902
0.000174773
0.000176635
0.000178468
0.000180256
0.000181986
0.000183648
0.000185235
0.000186741
0.000188167
0.000190036
0.000235376
0.000168191
0.000130177
0.00013099
0.0001375
0.00014509
0.00015235
0.000158777
0.000164203
0.000168658
0.000172287
0.000175289
0.000177866
0.000180194
0.000182403
0.000184579
0.00018677
0.000188991
0.000191239
0.0001935
0.000195754
0.000197982
0.000200163
0.00020228
0.000204322
0.000206276
0.000208138
0.000209903
0.000211568
0.00021372
0.000242364
0.00017383
0.000134631
0.000135703
0.000143206
0.000152112
0.000160776
0.000168567
0.000175252
0.00018083
0.000185446
0.000189312
0.00019265
0.000195655
0.000198476
0.000201214
0.000203926
0.000206636
0.000209346
0.000212043
0.000214709
0.000217324
0.00021987
0.000222331
0.000224694
0.000226951
0.000229093
0.000231119
0.000233027
0.000235457
0.000244666
0.000177376
0.000137722
0.000139121
0.000147568
0.000157717
0.000167719
0.000176823
0.000184728
0.000191403
0.000196989
0.000201707
0.000205796
0.000209471
0.000212898
0.000216191
0.000219417
0.000222609
0.000225771
0.000228894
0.000231963
0.000234958
0.000237863
0.00024066
0.000243339
0.000245891
0.000248309
0.000250592
0.000252737
0.000255437
0.000244976
0.000179808
0.000140254
0.000142049
0.000151387
0.000162694
0.000173944
0.000184276
0.000193326
0.000201034
0.000207535
0.000213058
0.00021786
0.000222172
0.000226175
0.000229996
0.000233714
0.000237365
0.00024096
0.000244492
0.000247947
0.000251308
0.000254557
0.000257679
0.000260662
0.000263498
0.000266183
0.000268713
0.000271088
0.000274048
0.000244364
0.000181818
0.000142747
0.00014499
0.000155181
0.000167572
0.000179982
0.000191453
0.000201562
0.000210224
0.000217568
0.000223834
0.000229291
0.000234189
0.000238724
0.000243035
0.000247208
0.000251287
0.000255286
0.000259201
0.00026302
0.000266724
0.000270297
0.000273725
0.000276996
0.000280103
0.00028304
0.000285806
0.0002884
0.000291608
0.000243397
0.000183845
0.000145475
0.000148204
0.000159223
0.000172648
0.000186151
0.000198684
0.000209772
0.000219308
0.000227421
0.00023436
0.000240412
0.00024584
0.000250857
0.000255613
0.000260201
0.000264672
0.000269042
0.000273311
0.000277465
0.000281488
0.000285364
0.000289078
0.000292619
0.000295979
0.000299155
0.000302143
0.000304943
0.000308388
0.000242556
0.000186108
0.000148557
0.000151803
0.000163644
0.00017807
0.000192615
0.000206148
0.000218146
0.000228486
0.000237298
0.000244845
0.00025143
0.000257334
0.000262783
0.000267938
0.000272901
0.000277727
0.000282437
0.000287029
0.000291492
0.00029581
0.000299966
0.000303946
0.000307738
0.000311335
0.000314733
0.000317929
0.000320923
0.000324592
0.000242057
0.00018869
0.000152037
0.000155838
0.000168504
0.00018391
0.000199459
0.000213939
0.000226787
0.000237866
0.000247315
0.000255409
0.000262471
0.000268799
0.000274633
0.000280146
0.000285446
0.000290593
0.000295609
0.000300496
0.000305243
0.000309832
0.000314247
0.000318473
0.000322499
0.000326317
0.000329923
0.000333314
0.00033649
0.000340373
0.000241957
0.000191607
0.000155934
0.000160337
0.000173838
0.000190212
0.000206732
0.000222112
0.000235753
0.000247513
0.000257538
0.000266123
0.000273609
0.000280313
0.000286488
0.000292319
0.00029792
0.000303356
0.000308651
0.000313807
0.000318813
0.000323652
0.000328307
0.000332761
0.000337005
0.000341028
0.000344828
0.000348402
0.00035175
0.000355835
0.00024226
0.000194856
0.000160259
0.000165327
0.000179682
0.000197013
0.000214472
0.000230706
0.000245086
0.000257469
0.000268013
0.000277034
0.000284893
0.000291926
0.000298401
0.000304512
0.000310381
0.000316076
0.000321622
0.000327023
0.000332267
0.000337335
0.000342211
0.000346878
0.000351324
0.00035554
0.000359522
0.000363268
0.000366775
0.000371054
0.000242949
0.000198433
0.000165028
0.000170836
0.00018607
0.000204352
0.000222719
0.00023976
0.000254825
0.000267772
0.000278778
0.00028818
0.000296362
0.000303679
0.000310413
0.000316768
0.000322873
0.000328797
0.000334569
0.000340192
0.000345652
0.000350932
0.000356013
0.000360876
0.00036551
0.000369906
0.000374058
0.000377965
0.000381624
0.000386087
0.00024401
0.000202336
0.000170258
0.000176898
0.000193046
0.000212272
0.000231516
0.000249317
0.00026501
0.000278462
0.00028987
0.000299599
0.000308054
0.000315609
0.000322562
0.000329126
0.000335434
0.000341561
0.000347534
0.000353356
0.000359013
0.000364486
0.000369754
0.0003748
0.000379609
0.000384172
0.000388484
0.000392541
0.000396342
0.000400981
0.000245435
0.000206569
0.000175969
0.000183551
0.000200653
0.000220823
0.000240913
0.000259425
0.000275687
0.000289583
0.000301335
0.000311333
0.00032001
0.000327758
0.00033489
0.000341627
0.000348108
0.000354408
0.000360557
0.000366557
0.000372391
0.00037804
0.00038348
0.000388693
0.000393665
0.000398383
0.000402843
0.000407041
0.000410975
0.000415782
0.000247223
0.000211142
0.000182186
0.000190835
0.000208943
0.000230058
0.000250964
0.000270138
0.00028691
0.000301186
0.00031322
0.000323431
0.000332278
0.000340173
0.000347442
0.000354316
0.000360937
0.000367384
0.000373685
0.00037984
0.000385832
0.000391638
0.000397235
0.000402602
0.000407722
0.000412585
0.000417183
0.000421512
0.000425569
0.000430536
0.000249379
0.000216068
0.000188934
0.000198795
0.000217971
0.000240039
0.00026173
0.000281515
0.000298735
0.000313328
0.000325581
0.000335946
0.00034491
0.000352904
0.000360269
0.000367243
0.000373974
0.000380539
0.000386967
0.000393255
0.000399385
0.000405332
0.000411069
0.000416575
0.000421831
0.000426826
0.000431551
0.000436001
0.000440173
0.000445292
0.00025191
0.000221363
0.000196243
0.000207481
0.0002278
0.00025083
0.000273279
0.000293622
0.000311228
0.000326071
0.000338478
0.000348938
0.000357964
0.00036601
0.000373428
0.000380466
0.000387273
0.000393927
0.000400456
0.000406856
0.000413104
0.000419173
0.000425035
0.000430665
0.000436044
0.000441159
0.000446
0.000450561
0.000454839
0.000460102
0.00025483
0.000227048
0.000204144
0.000216945
0.000238494
0.000262506
0.000285685
0.000306534
0.00032446
0.000339485
0.00035198
0.000362472
0.000371505
0.000379553
0.000386981
0.000394044
0.000400894
0.000407608
0.000414213
0.0004207
0.000427046
0.000433219
0.000439189
0.000444929
0.000450418
0.00045564
0.000460586
0.000465248
0.000469622
0.000475022
0.000258155
0.000233147
0.000212672
0.000227243
0.000250128
0.000275146
0.00029903
0.000320331
0.000338512
0.000353648
0.000366162
0.000376623
0.000385605
0.000393603
0.000400996
0.000408045
0.000414903
0.000421648
0.000428301
0.000434853
0.000441276
0.000447534
0.000453595
0.000459429
0.000465013
0.000470331
0.00047537
0.000480123
0.000484582
0.000490111
0.000261906
0.000239688
0.000221863
0.000238436
0.000262779
0.000288838
0.000313404
0.000335105
0.000353471
0.000368646
0.000381108
0.000391471
0.000400342
0.000408237
0.000415549
0.000422542
0.000429373
0.000436116
0.000442791
0.000449383
0.00045586
0.000462184
0.000468318
0.000474231
0.000479896
0.000485295
0.000490416
0.000495248
0.000499784
0.000505432
0.000266103
0.000246702
0.000231757
0.000250589
0.000276533
0.000303676
0.000328906
0.000350954
0.000369436
0.000384574
0.00039691
0.000407106
0.000415803
0.000423539
0.00043072
0.000437615
0.000444381
0.00045109
0.000457757
0.000464363
0.000470872
0.000477241
0.000483431
0.000489405
0.000495137
0.000500604
0.000505794
0.000510693
0.000515295
0.000521055
0.000270774
0.000254223
0.000242397
0.00026377
0.00029148
0.000319766
0.000345647
0.000367988
0.000386515
0.000401538
0.00041367
0.000423626
0.000432083
0.000439603
0.000446601
0.000453352
0.000460014
0.000466653
0.000473282
0.000479876
0.000486392
0.000492786
0.000499011
0.00050503
0.000510811
0.000516332
0.000521577
0.000526532
0.000531188
0.000537052
0.000275947
0.000262291
0.000253831
0.000278053
0.000307718
0.000337219
0.000363745
0.000386329
0.000404826
0.000419653
0.000431501
0.000441141
0.000449288
0.000456529
0.000463289
0.000469849
0.000476364
0.000482898
0.000489456
0.000496008
0.000502507
0.000508902
0.000515142
0.000521187
0.000527002
0.000532562
0.000537849
0.000542847
0.000547545
0.000553503
0.000281654
0.000270946
0.000266109
0.000293515
0.000325354
0.00035616
0.000383331
0.000406109
0.000424503
0.000439049
0.000450527
0.00045977
0.000467534
0.000474429
0.000480894
0.000487211
0.000493534
0.000499923
0.000506376
0.000512857
0.000519311
0.000525683
0.000531917
0.000537968
0.000543799
0.000549382
0.000554696
0.000559723
0.000564453
0.000570496
0.00028793
0.000280235
0.000279284
0.000310239
0.000344498
0.000376719
0.000404548
0.000427475
0.00044569
0.000459867
0.000470886
0.000479646
0.000486948
0.000493427
0.000499533
0.000505553
0.000511637
0.000517839
0.00052415
0.000530527
0.000536908
0.000543231
0.000549436
0.000555474
0.000561302
0.000566891
0.000572216
0.000577259
0.000582006
0.000588126
0.000294814
0.000290208
0.000293416
0.000328309
0.00036527
0.00039904
0.000427553
0.000450588
0.000468549
0.000482267
0.000492731
0.000500917
0.000507672
0.000513658
0.00051934
0.000525003
0.000530796
0.000536766
0.000542896
0.000549134
0.000555412
0.000561659
0.000567811
0.000573813
0.000579619
0.000585196
0.000590517
0.000595561
0.000600311
0.000606498
0.000302349
0.000300919
0.000308566
0.000347817
0.000387797
0.000423278
0.000452516
0.000475625
0.000493256
0.00050642
0.00051623
0.000523745
0.000529863
0.000535275
0.000540459
0.000545702
0.000551149
0.000556839
0.000562746
0.000568808
0.000574949
0.000581091
0.000587165
0.000593108
0.000598871
0.000604417
0.000609716
0.000614745
0.000619486
0.000625729
0.000310581
0.000312426
0.000324801
0.000368857
0.00041221
0.000449598
0.000479622
0.000502781
0.000520008
0.000532521
0.000541571
0.00054831
0.000553694
0.000558444
0.000563052
0.000567807
0.000572848
0.000578205
0.000583843
0.000589689
0.000595659
0.000601666
0.000607633
0.000613493
0.000619191
0.000624687
0.000629947
0.000634944
0.000639659
0.000645951
0.000319562
0.000324793
0.000342194
0.000391528
0.000438651
0.000478175
0.000509072
0.000532267
0.000549021
0.000560782
0.000568961
0.000574813
0.000579358
0.000583351
0.000587298
0.000591491
0.000596061
0.00060103
0.000606349
0.000611938
0.000617699
0.000623537
0.000629369
0.000635119
0.00064073
0.000646154
0.000651355
0.000656304
0.000660979
0.000667308
0.000329345
0.000338087
0.000360818
0.000415931
0.000467265
0.000509197
0.000541081
0.000564317
0.000580531
0.000591439
0.00059863
0.000603477
0.00060707
0.000610203
0.000613398
0.000616947
0.000620977
0.000625496
0.000630445
0.000635729
0.000641241
0.000646876
0.000652541
0.000658155
0.000663652
0.000668983
0.000674106
0.000678989
0.000683606
0.000689963
0.000339992
0.00035238
0.000380755
0.000442172
0.000498203
0.000542863
0.000575884
0.000599182
0.0006148
0.000624752
0.000630833
0.000634548
0.000637068
0.000639231
0.000641574
0.000644393
0.000647806
0.000651809
0.000656331
0.000661261
0.000666481
0.000671875
0.00067734
0.000682787
0.000688147
0.00069336
0.000698384
0.000703182
0.000707724
0.0007141
0.000351569
0.000367751
0.000402088
0.000470356
0.000531618
0.00057938
0.00061373
0.000637139
0.000652113
0.000661008
0.000665853
0.000668302
0.000669619
0.00067069
0.000672074
0.000674069
0.000676782
0.000680199
0.000684231
0.000688754
0.000693636
0.000698748
0.000703978
0.000709229
0.000714422
0.000719494
0.000724397
0.000729089
0.000733539
0.000739924
0.000364148
0.000384282
0.000424903
0.000500591
0.000567668
0.000618965
0.000654884
0.000678485
0.000692784
0.000700525
0.000704002
0.000705044
0.000705019
0.00070487
0.000705178
0.000706245
0.00070817
0.000710922
0.000714398
0.000718457
0.00072295
0.000727737
0.000732694
0.000737715
0.000742712
0.000747617
0.000752376
0.000756942
0.000761281
0.000767667
0.000377806
0.000402063
0.00044929
0.000532982
0.000606508
0.000661837
0.000699626
0.000723539
0.000737154
0.00074365
0.000745628
0.000745114
0.000743598
0.000742089
0.000741195
0.000741223
0.000742262
0.000744267
0.000747114
0.000750646
0.000754697
0.000759113
0.000763757
0.000768512
0.000773282
0.000777993
0.000782582
0.000787001
0.00079121
0.000797587
0.000392628
0.000421187
0.000475339
0.000567632
0.000648288
0.00070822
0.000748248
0.000772642
0.000785591
0.000790765
0.000791111
0.000788888
0.000785724
0.000782705
0.000780473
0.000779341
0.000779389
0.000780555
0.000782696
0.000785633
0.000789185
0.000793179
0.000797466
0.000801918
0.000806429
0.000810916
0.00081531
0.000819559
0.000823617
0.000829977
0.000408709
0.000441753
0.000503141
0.000604635
0.00069315
0.000758333
0.000801048
0.000826153
0.000838494
0.000842286
0.000840874
0.000836782
0.000831804
0.000827115
0.000823399
0.000820976
0.00081992
0.000820149
0.000821497
0.000823768
0.000826757
0.000830277
0.000834161
0.000838268
0.000842485
0.000846717
0.00085089
0.000854944
0.000858831
0.000865166
0.000426148
0.000463867
0.000532784
0.000644075
0.00074122
0.000812384
0.000858324
0.000884446
0.000896285
0.000898662
0.000895374
0.000889255
0.00088229
0.000875762
0.000870405
0.000866552
0.000864267
0.000863451
0.000863917
0.000865442
0.000867802
0.000870788
0.000874219
0.00087794
0.000881824
0.000885769
0.000889691
0.000893526
0.000897219
0.000903523
0.000445057
0.000487637
0.000564352
0.00068602
0.000792599
0.000870559
0.000920368
0.000947903
0.000959409
0.000960374
0.000955111
0.000946809
0.00093768
0.000929136
0.00092197
0.000916536
0.000912891
0.000910916
0.000910399
0.000911093
0.000912751
0.000915142
0.000918066
0.000921355
0.000924867
0.000928489
0.000932131
0.00093572
0.000939197
0.000945462
0.000465555
0.000513176
0.000597919
0.000730516
0.000847355
0.000933008
0.000987446
0.0010169
0.00102832
0.00102793
0.00102062
0.00100999
0.000998521
0.000987776
0.000978626
0.000971451
0.000966303
0.000963045
0.000961439
0.000961212
0.000962089
0.000963818
0.000966179
0.000968985
0.000972082
0.000975345
0.000978675
0.000981991
0.000985227
0.000991449
0.000487771
0.000540591
0.000633551
0.000777584
0.000905511
0.000999834
0.00105979
0.00109179
0.00110349
0.00110187
0.00109248
0.00107939
0.0010654
0.00105227
0.00104096
0.00103187
0.00102507
0.0010204
0.00101759
0.00101634
0.00101635
0.00101735
0.00101909
0.00102136
0.00102399
0.00102686
0.00102984
0.00103286
0.00103583
0.001042
0.000511827
0.00056996
0.000671299
0.000827219
0.000967026
0.00107107
0.00113755
0.00117289
0.00118535
0.00118272
0.00117126
0.00115563
0.00113897
0.00112327
0.0011096
0.00109843
0.00108982
0.00108359
0.00107946
0.00107709
0.00107615
0.00107633
0.00107738
0.00107906
0.00108119
0.00108362
0.00108622
0.0010889
0.00109158
0.00109771
0.000537845
0.000601323
0.000711201
0.000879389
0.00103178
0.00114664
0.0012208
0.00126043
0.00127429
0.00127099
0.00125759
0.00123935
0.00121989
0.00120144
0.00118524
0.00117181
0.00116122
0.0011533
0.00114771
0.00114411
0.00114212
0.00114142
0.00114171
0.00114274
0.00114431
0.00114626
0.00114845
0.00115076
0.00115312
0.0011592
0.000565968
0.000634739
0.000753261
0.000933989
0.00109957
0.00122636
0.00130947
0.00135453
0.00137064
0.00136716
0.00135202
0.00133122
0.00130886
0.00128752
0.00126861
0.00125274
0.00124002
0.00123025
0.00122309
0.00121814
0.00121501
0.00121333
0.00121279
0.00121312
0.00121408
0.0012155
0.00121724
0.00121916
0.00122117
0.0012272
0.000596371
0.000670353
0.000797462
0.000990779
0.00117007
0.00130991
0.00140334
0.00145516
0.00147456
0.00147159
0.00145509
0.00143185
0.00140657
0.00138223
0.00136046
0.001342
0.00132699
0.00131523
0.00130636
0.00129995
0.00129558
0.00129285
0.00129141
0.00129097
0.00129127
0.00129213
0.00129337
0.00129486
0.00129651
0.0013025
0.000629243
0.000708551
0.000843842
0.00104921
0.00124285
0.00139677
0.00150192
0.00156203
0.00158604
0.00158452
0.00156721
0.0015418
0.00151368
0.00148629
0.00146157
0.00144038
0.00142293
0.00140905
0.00139835
0.00139038
0.00138467
0.00138081
0.0013784
0.00137713
0.00137673
0.00137697
0.00137768
0.00137872
0.00137997
0.00138593
0.000664734
0.000749048
0.000892018
0.00110921
0.00131742
0.00148624
0.00160451
0.00167459
0.00170477
0.00170592
0.00168862
0.00166149
0.00163075
0.00160037
0.00157265
0.00154864
0.00152865
0.00151254
0.00149991
0.00149028
0.00148315
0.00147808
0.00147464
0.00147249
0.00147133
0.00147092
0.00147108
0.00147164
0.00147248
0.00147842
0.000702975
0.000791557
0.000941523
0.00117066
0.00139315
0.00157739
0.00171009
0.00179194
0.00183011
0.00183545
0.00181926
0.00179114
0.00175817
0.001725
0.00169434
0.0016675
0.00164493
0.00162651
0.00161186
0.0016005
0.00159189
0.00158555
0.00158103
0.00157795
0.001576
0.00157492
0.00157449
0.00157455
0.00157496
0.00158093
0.000744211
0.000836644
0.000992276
0.00123263
0.00146925
0.0016691
0.00181735
0.00191275
0.00196095
0.00197234
0.00195872
0.00193062
0.00189608
0.00186051
0.00182712
0.00179755
0.00177241
0.00175167
0.00173499
0.00172186
0.00171173
0.00170408
0.00169845
0.00169442
0.00169166
0.00168989
0.00168886
0.00168841
0.00168839
0.00169441
0.000788717
0.000884321
0.00104399
0.00129453
0.0015448
0.00176008
0.0019247
0.00203531
0.00209567
0.00211527
0.00210605
0.00207937
0.00204424
0.00200689
0.00197118
0.00193912
0.00191156
0.00188859
0.00186992
0.00185503
0.00184339
0.00183445
0.0018277
0.00182273
0.00181916
0.00181669
0.00181508
0.00181411
0.00181368
0.00181982
0.000836817
0.000934677
0.00109653
0.00135576
0.00161871
0.00184892
0.00203033
0.00215751
0.00223214
0.00226232
0.0022597
0.00223623
0.00220184
0.00216369
0.00212631
0.00209222
0.00206255
0.00203756
0.00201703
0.00200051
0.00198743
0.00197724
0.00196944
0.00196356
0.00195921
0.00195608
0.00195391
0.00195246
0.00195165
0.00195798
0.00088886
0.00098779
0.00115044
0.00141592
0.00168941
0.00193421
0.00213235
0.00227697
0.00236771
0.0024109
0.00241738
0.00239931
0.00236743
0.0023298
0.00229175
0.00225634
0.00222507
0.00219844
0.00217635
0.0021584
0.00214406
0.00213277
0.00212401
0.00211731
0.00211227
0.00210856
0.00210588
0.00210402
0.00210289
0.00210951
0.000945145
0.00104366
0.00120417
0.00147421
0.00175713
0.00201475
0.00222889
0.00239119
0.00249939
0.00255784
0.00257604
0.0025659
0.0025387
0.00250335
0.00246596
0.00243027
0.00239819
0.00237053
0.00234734
0.00232832
0.00231301
0.00230085
0.00229133
0.00228398
0.00227839
0.00227421
0.00227114
0.00226895
0.00226762
0.00227467
0.00100599
0.00110231
0.00125804
0.00153032
0.00182106
0.0020895
0.00231836
0.0024978
0.00262411
0.00269959
0.00273201
0.00273249
0.00271246
0.00268151
0.00264654
0.00261193
0.00258014
0.00255229
0.00252869
0.00250916
0.00249331
0.00248065
0.00247068
0.00246293
0.002457
0.00245253
0.00244924
0.00244687
0.00244548
0.00245313
0.00107212
0.00116379
0.00131314
0.00158494
0.00188033
0.00215783
0.00239964
0.00259487
0.002739
0.00283252
0.0028812
0.00289488
0.00288467
0.00286054
0.00283004
0.00279825
0.00276814
0.00274125
0.00271816
0.00269887
0.0026831
0.00267044
0.00266044
0.00265265
0.00264668
0.00264219
0.00263888
0.00263652
0.00263529
0.00264375
0.00114401
0.00122832
0.00136772
0.00163689
0.00193652
0.00221997
0.0024723
0.00268116
0.00284184
0.00295338
0.00301956
0.00304854
0.00305064
0.00303581
0.00301208
0.00298507
0.00295832
0.00293379
0.00291235
0.00289426
0.00287937
0.00286737
0.00285788
0.00285051
0.00284489
0.0028407
0.00283766
0.00283557
0.00283476
0.00284425
0.00117746
0.00129556
0.00142414
0.00168794
0.0019894
0.00227678
0.00253665
0.00275637
0.0029314
0.00305981
0.00314361
0.00318914
0.00320551
0.00320224
0.0031875
0.00316733
0.00314576
0.00312514
0.0031067
0.00309092
0.00307785
0.0030673
0.00305898
0.00305257
0.00304775
0.00304425
0.00304181
0.00304028
0.00304018
0.00305096
0.00115836
0.00131043
0.00148294
0.00173986
0.00204048
0.00232969
0.00259384
0.00282131
0.00300775
0.00315077
0.00325106
0.00331323
0.00334492
0.00335484
0.00335094
0.00333948
0.00332482
0.00330968
0.0032956
0.00328331
0.00327306
0.0032648
0.00325836
0.0032535
0.00324998
0.00324757
0.00324607
0.00324538
0.00324633
0.00325859
0.00113978
0.00128653
0.0015437
0.00179082
0.00209188
0.00238063
0.00264588
0.00287786
0.00307233
0.00322687
0.00334136
0.00341896
0.00346582
0.00348956
0.00349763
0.00349621
0.00348983
0.00348148
0.00347297
0.00346524
0.00345874
0.00345356
0.00344966
0.00344689
0.00344511
0.00344414
0.00344386
0.00344428
0.00344653
0.00346039
0.00112197
0.00126111
0.00160668
0.00184231
0.00214503
0.00243167
0.00269559
0.00292899
0.00312795
0.00329042
0.00341592
0.00350658
0.00356721
0.00360425
0.00362441
0.00363353
0.00363613
0.00363536
0.0036332
0.00363078
0.0036287
0.00362719
0.00362631
0.00362603
0.00362627
0.00362697
0.00362806
0.00362972
0.00363343
0.00364884
0.00110508
0.00123456
0.00157715
0.00190086
0.0022023
0.00248588
0.0027469
0.0029785
0.00317855
0.00334527
0.00347815
0.00357869
0.00365065
0.00369936
0.00373063
0.00374983
0.00376128
0.00376815
0.00377252
0.00377566
0.00377825
0.00378064
0.00378298
0.00378531
0.00378765
0.00379001
0.00379245
0.00379531
0.00380044
0.00381714
0.00108931
0.00120827
0.00154056
0.00196665
0.00226605
0.00254597
0.00280245
0.00303055
0.00322891
0.00339647
0.0035331
0.00364002
0.00372025
0.00377818
0.00381875
0.00384669
0.00386603
0.00387986
0.00389031
0.00389868
0.00390573
0.00391185
0.00391724
0.00392201
0.00392625
0.00393006
0.00393359
0.00393743
0.00394373
0.00396126
0.00107487
0.00118221
0.00150026
0.00198926
0.00233978
0.00261594
0.00286624
0.00308962
0.00328404
0.00344971
0.00358692
0.00369684
0.00378212
0.0038465
0.00389408
0.00392889
0.00395458
0.00397412
0.00398965
0.00400249
0.0040134
0.00402276
0.00403078
0.00403761
0.00404337
0.00404822
0.00405249
0.00405695
0.00406405
0.0040818
0.00106174
0.00115722
0.00145805
0.0019434
0.00237666
0.00269753
0.00294252
0.00315922
0.00334811
0.00351026
0.00364583
0.00375599
0.00384339
0.00391158
0.00396387
0.00400351
0.00403375
0.00405749
0.00407686
0.00409318
0.00410716
0.00411914
0.00412926
0.00413767
0.0041445
0.00415
0.00415461
0.00415933
0.00416676
0.00418414
0.00104995
0.00113332
0.00141506
0.00189158
0.00233652
0.00272295
0.0030338
0.0032448
0.00342644
0.0035832
0.00371536
0.00382374
0.00391105
0.00398101
0.00403613
0.0040787
0.00411165
0.00413797
0.00415989
0.0041787
0.00419499
0.00420898
0.00422073
0.0042303
0.00423783
0.00424363
0.00424825
0.00425289
0.00426024
0.00427673
0.00103954
0.00111075
0.00137196
0.0018369
0.00228422
0.00267812
0.00302225
0.00331503
0.00352441
0.00367437
0.0038015
0.0039057
0.00399078
0.0040612
0.00411798
0.00416201
0.00419604
0.00422349
0.00424682
0.00426724
0.00428516
0.00430064
0.00431358
0.00432396
0.00433187
0.00433765
0.00434198
0.00434623
0.00435308
0.0043682
0.00103054
0.00108969
0.0013288
0.00177625
0.00223616
0.0026297
0.00297739
0.00327459
0.00352442
0.0037324
0.00390559
0.00400929
0.00408917
0.0041578
0.0042145
0.00425813
0.0042916
0.00431923
0.00434346
0.00436512
0.00438438
0.00440113
0.00441516
0.00442628
0.00443448
0.00444007
0.00444387
0.0044474
0.00445336
0.00446673
0.00102295
0.00107037
0.00128647
0.00171064
0.00217401
0.0025765
0.00292854
0.00322924
0.00348241
0.00369352
0.00387016
0.00401742
0.00414006
0.00424287
0.00432911
0.00437573
0.00440566
0.00443153
0.00445529
0.00447692
0.0044963
0.00451339
0.00452801
0.00453977
0.00454824
0.00455351
0.00455655
0.0045591
0.0045638
0.00457503
0.00101676
0.00105293
0.00124548
0.00165409
0.0021176
0.00252152
0.00287644
0.00318025
0.00343648
0.00365021
0.00382929
0.00397877
0.00410356
0.00420783
0.00429498
0.00436838
0.00443028
0.0044825
0.00452656
0.00456377
0.00459526
0.00462196
0.00464463
0.00466392
0.00467915
0.00468323
0.00468404
0.00468475
0.00468762
0.00469611
0.00101194
0.00103734
0.0012055
0.00159616
0.00206102
0.00246453
0.00282127
0.00312778
0.00338689
0.00360326
0.00378456
0.00393591
0.00406232
0.00416799
0.00425644
0.00433058
0.00439282
0.00444539
0.00448984
0.00452745
0.00455928
0.00458627
0.00460919
0.00462869
0.00464533
0.00465954
0.00467172
0.00468216
0.00469114
0.00469888
0.00100846
0.00102372
0.001167
0.00153623
0.00200625
0.00240754
0.00276372
0.00307225
0.00333391
0.00355283
0.00373624
0.00388939
0.0040173
0.00412424
0.00421375
0.0042888
0.00435183
0.00440486
0.00444956
0.00448742
0.00451951
0.00454673
0.00456985
0.00458952
0.00460629
0.00462063
0.0046329
0.00464343
0.00465248
0.00466028
0.00100628
0.00101219
0.00113082
0.00147557
0.00194015
0.00234877
0.00270341
0.00301363
0.00327767
0.00349908
0.00368456
0.00383949
0.00396889
0.00407705
0.00416757
0.00424345
0.00430718
0.00436079
0.004406
0.0044442
0.00447655
0.00450402
0.00452737
0.00454723
0.00456415
0.00457859
0.00459095
0.00460156
0.00461068
0.00461854
0.00100535
0.0010028
0.0010973
0.00141433
0.00186727
0.00229183
0.00264101
0.00295212
0.00321826
0.0034421
0.00362961
0.00378633
0.00391725
0.00402667
0.00411822
0.00419493
0.00425933
0.00431348
0.00435912
0.00439766
0.00443029
0.00445799
0.00448155
0.00450165
0.00451879
0.00453345
0.00454599
0.00455675
0.00456599
0.00457394
0.00100559
0.000995541
0.00106709
0.001356
0.00178813
0.00222431
0.00257357
0.00288687
0.00315541
0.00338179
0.00357134
0.00372991
0.0038624
0.00397313
0.00406576
0.00414335
0.00420844
0.00426314
0.00430921
0.00434806
0.00438091
0.00440874
0.00443235
0.00445244
0.00446955
0.00448416
0.00449667
0.00450739
0.0045166
0.00452451
0.00100691
0.000990338
0.00103998
0.0012993
0.00171771
0.00215286
0.00250287
0.00281817
0.00308906
0.00331805
0.00350965
0.00367018
0.00380432
0.00391642
0.00401018
0.0040887
0.00415455
0.00420987
0.00425644
0.00429569
0.00432886
0.00435694
0.00438075
0.00440098
0.00441821
0.0044329
0.00444546
0.00445622
0.00446545
0.00447339
0.00100922
0.00098714
0.00101614
0.00124362
0.00164511
0.00207772
0.0024286
0.00274561
0.00301898
0.00325066
0.00344445
0.00360708
0.00374295
0.00385649
0.00395143
0.00403092
0.00409757
0.00415356
0.00420066
0.00424036
0.00427389
0.00430227
0.00432633
0.00434677
0.00436417
0.00437901
0.00439169
0.00440255
0.00441186
0.00441987
0.00101244
0.000985879
0.000995868
0.00118938
0.00156899
0.00199745
0.00235217
0.00266936
0.00294497
0.00317936
0.00337575
0.00354053
0.00367821
0.00379324
0.00388942
0.00396993
0.00403742
0.00409409
0.00414176
0.00418192
0.00421584
0.00424453
0.00426886
0.00428951
0.00430709
0.00432208
0.00433489
0.00434585
0.00435526
0.00436334
0.00101645
0.000986458
0.000979539
0.0011382
0.00149205
0.00191518
0.00227379
0.00259001
0.00286746
0.00310439
0.00330347
0.00347044
0.00361
0.0037266
0.00382408
0.00390566
0.00397402
0.00403141
0.00407966
0.00412031
0.00415462
0.00418364
0.00420824
0.00422912
0.00424688
0.00426202
0.00427495
0.00428602
0.00429551
0.00430367
0.00102116
0.000988727
0.000967303
0.00109136
0.0014161
0.00182764
0.00219898
0.00250985
0.00278738
0.00302616
0.00322773
0.00339682
0.00353828
0.00365651
0.00375534
0.00383804
0.00390732
0.00396546
0.00401433
0.00405548
0.0040902
0.00411954
0.00414442
0.00416552
0.00418347
0.00419876
0.00421182
0.00422299
0.00423257
0.0042408
0.00102644
0.000992487
0.000959114
0.00104995
0.00133582
0.00173301
0.0021123
0.00242414
0.00270316
0.00294413
0.00314829
0.00331951
0.00346296
0.00358289
0.00368315
0.00376702
0.00383727
0.00389619
0.0039457
0.00398737
0.00402251
0.0040522