/*--------------------------------*- C++ -*----------------------------------*\
| =========                 |                                                 |
| \\      /  F ield         | OpenFOAM: The Open Source CFD Toolbox           |
|  \\    /   O peration     | Version:  2312                                  |
|   \\  /    A nd           | Website:  www.openfoam.com                      |
|    \\/     M anipulation  |                                                 |
\*---------------------------------------------------------------------------*/
FoamFile
{
    version     2.0;
    format      ascii;
    arch        "LSB;label=32;scalar=64";
    class       volScalarField;
    location    "20000";
    object      Dk;
}
// * * * * * * * * * * * * * * * * * * * * * * * * * * * * * * * * * * * * * //

dimensions      [0 2 -3 0 0 0 0];

internalField   nonuniform List<scalar> 
29400
(
403.849
749.642
1291.92
1902.54
2535.69
3117.39
3628.76
4065.16
4431.56
4737.1
4991.22
5202.63
5378.92
5526.45
5650.48
5755.3
5844.37
5920.48
5985.82
6042.11
6090.82
6133.16
6170.09
6202.4
6230.77
6255.75
6277.79
6297.44
6314.81
6330.1
900.746
835.312
875.331
964.383
1054.24
1137.12
1213.01
1283.95
1351.53
1416.57
1479.43
1540.2
1598.84
1655.24
1709.28
1760.86
1809.86
1856.21
1899.88
1940.83
1979.11
2014.77
2047.89
2078.59
2106.97
2133.2
2157.39
2179.73
2200.25
2219.47
993.672
965.144
1045.5
1148.02
1242.37
1325.51
1401.26
1473.06
1543.05
1612.2
1680.81
1748.76
1815.76
1881.41
1945.26
2006.94
2066.1
2122.48
2175.88
2226.21
2273.4
2317.49
2358.54
2396.66
2431.96
2464.6
2494.74
2522.55
2548.07
2572.14
652.637
673.256
791.404
900.039
991.684
1069.75
1139.69
1205.15
1268.21
1329.94
1390.75
1450.63
1509.37
1566.61
1621.98
1675.1
1725.68
1773.47
1818.35
1860.24
1899.16
1935.16
1968.36
1998.89
2026.91
2052.58
2076.07
2097.54
2117.05
2135.03
447.608
482.294
603.86
714.265
806.383
884.784
954.917
1020.29
1082.95
1144
1203.89
1262.68
1320.18
1376.07
1429.96
1481.5
1530.38
1576.39
1619.38
1659.33
1696.24
1730.21
1761.37
1789.86
1815.87
1839.57
1861.14
1880.75
1898.58
1914.84
334.669
367.493
486.44
597.379
691.074
771.719
844.368
912.3
977.491
1041.03
1103.38
1164.61
1224.51
1282.72
1338.8
1392.36
1443.05
1490.63
1534.96
1575.98
1613.73
1648.31
1679.88
1708.62
1734.73
1758.4
1779.85
1799.27
1816.85
1832.75
263.28
294.468
412.216
522.729
617.787
701.01
776.887
848.394
917.36
984.807
1051.18
1116.49
1180.5
1242.77
1302.81
1360.17
1414.43
1465.32
1512.65
1556.35
1596.48
1633.16
1666.55
1696.86
1724.31
1749.14
1771.56
1791.79
1810.06
1826.47
215.959
248.257
362.917
471.332
566.837
652.292
731.433
806.792
879.966
951.854
1022.82
1092.85
1161.61
1228.61
1293.31
1355.15
1413.7
1468.62
1519.71
1566.88
1610.18
1649.72
1685.68
1718.28
1747.77
1774.39
1798.39
1820.02
1839.5
1856.94
184.797
217.75
326.801
431.483
526.295
613.19
695.07
773.941
851.099
927.275
1002.74
1077.38
1150.83
1222.53
1291.86
1358.23
1421.13
1480.18
1535.16
1585.97
1632.62
1675.25
1714.02
1749.18
1780.98
1809.68
1835.56
1858.86
1879.85
1898.6
163.482
195.873
297.693
397.547
490.602
577.924
661.618
743.168
823.554
903.317
982.609
1061.25
1138.78
1214.62
1288.06
1358.48
1425.3
1488.13
1546.7
1600.89
1650.71
1696.27
1737.77
1775.42
1809.5
1840.29
1868.07
1893.1
1915.65
1935.8
147.815
178.779
272.833
367.349
457.842
544.602
629.056
712.226
794.8
877.139
959.278
1040.95
1121.66
1200.74
1277.47
1351.15
1421.19
1487.13
1548.7
1605.74
1658.27
1706.37
1750.23
1790.09
1826.21
1858.88
1888.38
1915
1939
1960.48
135.434
164.582
251.05
340.124
427.532
512.933
597.19
680.942
764.633
848.466
932.378
1016.03
1098.88
1180.21
1259.25
1335.28
1407.66
1475.93
1539.76
1598.99
1653.6
1703.69
1749.43
1791.05
1828.82
1863.03
1893.96
1921.9
1947.12
1969.73
125.104
152.376
231.753
315.498
399.528
482.99
566.288
649.744
733.605
817.95
902.633
987.267
1071.25
1153.85
1234.27
1311.74
1385.61
1455.37
1520.7
1581.41
1637.46
1688.94
1736.01
1778.9
1817.88
1853.22
1885.22
1914.16
1940.31
1963.79
116.189
141.686
214.554
293.177
373.682
454.806
536.571
619.041
702.304
786.341
870.946
955.692
1039.95
1122.96
1203.9
1281.99
1356.56
1427.08
1493.19
1554.71
1611.59
1663.88
1711.76
1755.44
1795.17
1831.24
1863.93
1893.53
1920.31
1944.39
108.339
132.211
199.152
272.899
349.821
428.332
508.138
589.091
671.151
754.224
838.061
922.209
1006.02
1088.72
1169.47
1247.48
1322.07
1392.69
1458.98
1520.73
1577.88
1630.48
1678.69
1722.71
1762.79
1799.22
1832.26
1862.21
1889.33
1913.74
101.337
123.743
185.306
254.442
327.78
403.487
481.012
560.036
640.417
722.007
804.523
887.498
970.275
1052.07
1132.05
1209.41
1283.45
1353.63
1419.57
1481.06
1538.01
1590.49
1638.62
1682.6
1722.69
1759.15
1792.25
1822.26
1849.47
1873.99
95.0339
116.125
172.825
237.621
307.412
380.184
455.184
531.958
610.285
689.975
770.727
852.065
933.332
1013.74
1092.46
1168.69
1241.73
1311.03
1376.19
1437.01
1493.38
1545.36
1593.07
1636.71
1676.5
1712.72
1745.61
1775.47
1802.54
1826.97
89.3213
109.236
161.551
222.28
288.591
358.348
430.643
504.916
580.89
658.348
736.978
816.304
895.673
974.308
1051.38
1126.09
1197.74
1265.78
1329.81
1389.61
1445.09
1496.28
1543.29
1586.31
1625.56
1661.3
1693.79
1723.29
1750.05
1774.22
84.1162
102.98
151.354
208.287
271.21
337.912
407.373
478.955
552.345
627.306
703.526
780.535
857.691
934.227
1009.32
1082.19
1152.14
1218.61
1281.22
1339.73
1394.05
1444.19
1490.26
1532.44
1570.95
1606.03
1637.93
1666.9
1693.2
1716.97
79.354
97.2815
142.122
195.528
255.175
318.819
385.361
454.116
524.742
597.001
670.585
745.034
819.72
893.894
966.75
1037.51
1105.5
1170.15
1231.09
1288.07
1341
1389.88
1434.82
1475.98
1513.57
1547.82
1578.98
1607.3
1633.01
1656.26
74.9828
92.0759
133.759
183.901
240.4
301.013
364.594
430.427
498.164
567.566
638.338
710.035
782.049
853.649
924.049
992.487
1058.29
1120.92
1179.98
1235.24
1286.59
1334.04
1377.68
1417.66
1454.19
1487.48
1517.78
1545.31
1570.32
1592.95
70.96
87.3107
126.18
173.315
226.808
284.443
345.054
407.914
472.675
539.111
606.942
675.742
744.927
813.787
881.559
947.498
1010.95
1071.37
1128.39
1181.77
1231.39
1277.25
1319.45
1358.12
1393.46
1425.68
1455.01
1481.67
1505.88
1527.81
67.2502
82.9412
119.31
163.688
214.327
269.06
326.722
386.59
448.329
511.729
576.53
642.33
708.569
774.563
839.572
902.875
963.83
1021.92
1076.76
1128.11
1175.87
1220.03
1260.67
1297.92
1331.97
1363.02
1391.29
1416.99
1440.34
1461.48
63.8233
78.9291
113.085
154.944
202.889
254.814
309.574
366.462
425.166
485.494
547.212
609.944
673.156
736.194
798.343
858.906
917.258
972.895
1025.44
1074.67
1120.47
1162.83
1201.81
1237.56
1270.23
1300.03
1327.16
1351.83
1374.24
1394.54
60.6535
75.2411
107.444
147.014
192.431
241.659
293.583
347.529
403.211
460.463
519.077
578.705
638.843
698.865
758.086
815.834
871.506
924.611
974.789
1021.81
1065.56
1106.03
1143.29
1177.46
1208.69
1237.17
1263.1
1286.68
1308.1
1327.5
57.7187
71.8487
102.334
139.835
182.893
229.544
278.719
329.783
382.48
436.677
492.193
548.709
605.752
662.728
718.982
773.868
826.806
877.323
925.069
969.822
1011.47
1050
1085.47
1117.99
1147.72
1174.84
1199.52
1221.97
1242.35
1260.82
54.9994
68.7264
97.7079
133.348
174.215
218.421
264.948
313.206
362.978
414.163
466.609
520.03
573.984
627.908
681.179
733.18
783.355
831.249
876.526
918.969
958.47
995.012
1028.65
1059.5
1087.69
1113.4
1136.8
1158.07
1177.39
1194.88
52.4783
65.8519
93.5224
127.498
166.343
208.242
252.233
297.776
344.699
392.934
442.361
492.724
543.615
594.503
644.799
693.913
741.317
786.574
829.362
869.473
906.802
941.332
973.115
1002.25
1028.88
1053.15
1075.24
1095.32
1113.55
1130.05
50.1402
63.2054
89.7386
122.234
159.224
198.958
240.533
283.466
327.63
372.993
419.467
466.828
514.701
562.589
609.935
656.181
700.823
743.448
783.746
821.52
856.668
889.175
919.088
946.503
971.55
994.376
1015.14
1034.01
1051.13
1066.62
47.9714
60.769
86.321
117.509
152.806
190.519
229.806
270.243
311.749
354.33
397.933
442.364
487.28
532.221
576.66
620.072
661.981
701.993
739.816
775.263
808.238
838.724
866.767
892.46
915.922
937.296
956.731
974.38
990.388
1004.86
45.9594
58.5267
83.2378
113.278
147.041
182.879
220.009
258.07
297.028
336.93
377.754
419.339
461.374
503.433
545.024
585.653
624.87
662.306
697.685
730.829
761.649
790.131
816.318
840.297
862.184
882.111
900.221
916.656
931.553
945.006
44.093
56.4638
80.4596
109.502
141.881
175.988
211.096
246.905
283.435
320.767
358.915
397.748
436.99
476.247
515.06
552.969
589.551
624.46
657.437
688.316
717.015
743.52
767.875
790.162
810.491
828.988
845.787
861.02
874.815
887.258
42.3618
54.567
77.96
106.141
137.282
169.8
203.02
236.708
270.93
305.809
341.391
377.578
414.123
450.666
486.786
522.049
556.065
588.507
619.137
647.801
674.422
698.99
721.548
742.175
760.974
778.065
793.574
807.625
820.336
831.784
40.7564
52.824
75.7146
103.161
133.201
164.268
195.736
227.431
259.472
292.02
325.153
358.803
392.756
426.686
460.202
492.906
524.432
554.481
582.83
609.337
633.935
656.616
677.422
696.429
713.735
729.454
743.703
756.599
768.249
778.723
39.2677
51.2234
73.7013
100.528
129.597
159.347
189.196
219.029
249.017
279.358
310.162
341.392
372.864
404.286
435.299
465.537
494.662
522.398
548.541
572.962
595.6
616.452
635.559
652.994
668.852
683.239
696.266
708.04
718.661
728.189
37.8877
49.7548
71.8996
98.2106
126.432
154.994
183.353
211.456
239.518
267.779
296.377
325.307
354.415
383.439
412.056
439.928
466.747
492.26
516.28
538.691
559.441
578.531
596
611.921
626.383
639.485
651.333
662.025
671.651
680.266
36.6084
48.4083
70.2908
96.1813
123.669
151.167
178.164
204.662
230.927
257.233
283.752
310.503
337.366
364.11
390.441
416.055
440.669
464.054
486.041
506.528
525.468
542.868
558.768
573.237
586.36
598.231
608.948
618.603
627.277
635.017
35.4226
47.1745
68.8574
94.4132
121.274
147.825
173.582
198.601
223.195
247.673
272.236
296.934
321.674
346.255
370.417
393.882
416.398
437.756
457.806
476.458
493.673
509.462
523.866
536.95
548.798
559.497
569.137
577.803
585.569
592.475
34.3233
46.0447
67.5836
92.8815
119.215
144.93
169.565
193.227
216.272
239.047
261.78
284.548
307.288
329.827
351.936
373.368
393.896
413.332
431.544
448.455
464.035
478.296
491.28
503.054
513.692
523.28
531.9
539.63
546.537
552.655
33.304
45.0106
66.4543
91.5632
117.461
142.446
166.071
188.493
210.11
231.304
252.33
273.292
294.153
314.772
334.948
354.463
373.113
390.735
407.213
422.481
436.516
449.336
460.983
471.52
481.02
489.561
497.221
504.071
510.169
515.547
32.3583
44.0643
65.4556
90.4369
115.984
140.337
163.061
184.355
204.661
224.392
243.831
263.109
282.214
301.034
319.396
337.11
353.997
369.915
384.762
398.486
411.072
422.539
432.931
442.309
450.742
458.303
465.064
471.09
476.432
481.12
31.4801
43.1981
64.5745
89.4825
114.756
138.571
160.495
180.771
199.878
218.261
236.231
253.943
271.412
288.553
305.22
321.249
336.487
350.809
364.132
376.412
387.643
397.847
407.068
415.365
422.804
429.452
435.377
440.636
445.277
449.324
30.6636
42.4049
63.7988
88.6813
113.754
137.118
158.339
177.698
195.713
212.86
229.476
245.738
261.689
277.267
292.356
306.816
320.516
333.352
345.255
356.192
366.163
375.193
383.327
390.621
397.138
402.941
408.091
412.642
416.635
420.094
29.9032
41.6776
63.1169
88.0157
112.954
135.947
156.557
175.098
192.124
208.142
223.512
238.437
252.983
267.114
280.739
293.742
306.016
317.473
328.059
337.752
346.556
354.5
361.629
367.997
373.664
378.689
383.126
387.026
390.425
393.345
29.1932
41.0092
62.518
87.4691
112.333
135.033
155.118
172.933
189.068
204.058
218.288
231.984
245.234
258.029
270.301
281.959
292.913
303.097
312.467
321.011
328.74
335.684
341.889
347.407
352.294
356.604
360.389
363.694
366.552
368.982
28.528
40.3933
61.993
87.0266
111.872
134.349
153.989
171.167
186.503
200.562
213.753
226.324
238.384
249.95
260.976
271.394
281.134
290.145
298.397
305.885
312.627
318.655
324.014
328.754
332.929
336.588
339.779
342.542
344.91
346.898
27.9004
39.8221
61.5372
86.6763
111.55
133.871
153.143
169.765
184.392
197.612
209.859
221.402
232.374
242.813
252.696
261.975
270.601
278.537
285.765
292.288
298.127
303.319
307.906
311.939
315.465
318.533
321.186
323.46
325.385
326.978
27.3019
39.2825
61.1457
86.4095
111.349
133.577
152.552
168.697
182.696
195.164
206.558
217.167
227.147
236.556
245.393
253.632
261.239
268.192
274.485
280.128
285.146
289.577
293.464
296.854
299.794
302.328
304.495
306.329
307.858
309.098
26.7255
38.7577
60.8061
86.2163
111.251
133.444
152.19
167.932
181.381
193.18
203.805
213.569
222.646
231.117
239.002
246.292
252.971
259.03
264.472
269.315
273.589
277.331
280.584
283.395
285.806
287.858
289.59
291.03
292.206
293.132
26.1663
38.2376
60.4979
86.0804
111.238
133.454
152.031
167.439
180.414
191.62
201.557
210.558
218.819
226.439
233.458
239.886
245.722
250.969
255.641
259.76
263.36
266.48
269.162
271.451
273.387
275.009
276.35
277.44
278.302
278.953
25.6197
37.7462
60.2411
85.9474
111.296
133.586
152.052
167.192
179.762
190.448
199.773
208.089
215.613
222.463
228.699
234.346
239.418
243.931
247.906
251.372
254.365
256.926
259.095
260.916
262.427
263.664
264.659
265.438
266.023
266.431
25.0782
37.2435
60.0073
85.8438
111.419
133.823
152.23
167.164
179.395
189.63
198.413
206.117
212.979
219.136
224.664
229.606
233.989
237.84
241.187
244.065
246.513
248.571
250.282
251.685
252.817
253.712
254.399
254.903
255.245
255.441
24.5296
36.6841
59.7038
85.8037
111.604
134.149
152.545
167.331
179.285
189.134
197.441
204.601
210.87
216.404
221.295
225.602
229.366
232.621
235.404
237.755
239.714
241.324
242.625
243.655
244.45
245.042
245.458
245.72
245.849
245.859
23.9666
36.1054
59.358
85.7609
111.84
134.546
152.976
167.671
179.406
188.928
196.821
203.501
209.242
214.218
218.539
222.276
225.483
228.204
230.482
232.361
233.884
235.093
236.029
236.729
237.226
237.55
237.726
237.777
237.719
237.569
23.3837
35.4994
58.9645
85.6959
112.111
134.996
153.506
168.161
179.733
188.985
196.522
202.781
208.054
212.533
216.343
219.571
222.279
224.522
226.35
227.808
228.942
229.795
230.407
230.814
231.047
231.135
231.102
230.967
230.747
230.457
22.7765
34.8599
58.5243
85.5885
112.398
135.483
154.118
168.784
180.243
189.278
196.515
202.406
207.267
211.305
214.661
217.434
219.698
221.515
222.94
224.024
224.812
225.35
225.675
225.823
225.824
225.705
225.488
225.191
224.83
224.42
22.1404
34.1795
58.0934
85.545
112.662
136.017
154.81
169.522
180.916
189.785
196.771
202.347
206.847
210.496
213.449
215.818
217.686
219.125
220.192
220.943
221.426
221.684
221.756
221.676
221.473
221.172
220.795
220.357
219.874
219.359
21.4704
33.4488
57.5517
85.3792
112.892
136.536
155.56
170.363
181.732
190.483
197.266
202.575
206.763
210.07
212.668
214.679
216.197
217.299
218.051
218.507
218.719
218.731
218.58
218.299
217.917
217.458
216.94
216.38
215.791
215.185
20.7613
32.6618
56.9213
85.0985
113.098
137.044
156.331
171.278
182.675
191.352
197.978
203.065
206.985
209.996
212.281
213.977
215.186
215.992
216.463
216.661
216.634
216.429
216.082
215.625
215.087
214.488
213.849
213.182
212.501
211.816
20.0077
31.8112
56.2731
84.9035
113.304
137.518
157.123
172.254
183.722
192.37
198.882
203.792
207.487
210.243
212.257
213.677
214.614
215.159
215.384
215.353
215.118
214.722
214.203
213.593
212.917
212.198
211.452
210.693
209.932
209.179
19.2048
30.8865
55.468
84.4162
113.443
137.949
157.923
173.277
184.857
193.518
199.956
204.729
208.242
210.784
212.564
213.745
214.445
214.762
214.772
214.54
214.121
213.558
212.89
212.146
211.351
210.526
209.688
208.848
208.017
207.205
18.3506
29.8822
54.6109
83.956
113.44
138.349
158.717
174.327
186.063
194.778
201.186
205.858
209.222
211.587
213.173
214.15
214.645
214.763
214.586
214.18
213.6
212.893
212.094
211.233
210.334
209.418
208.499
207.589
206.697
205.833
17.4659
28.7831
53.6672
83.4697
113.323
138.791
159.489
175.39
187.32
196.13
202.547
207.16
210.411
212.627
214.048
214.855
215.178
215.127
214.788
214.231
213.513
212.68
211.768
210.807
209.82
208.824
207.836
206.865
205.919
205.009
16.5917
27.5982
52.5315
82.6107
113.105
139.162
160.207
176.446
188.61
197.554
204.02
208.61
211.785
213.888
215.174
215.831
216.006
215.813
215.339
214.654
213.818
212.877
211.868
210.82
209.756
208.693
207.646
206.624
205.635
204.686
15.7423
26.3445
51.1999
81.5092
112.737
139.369
160.857
177.48
189.915
199.031
205.581
210.184
213.318
215.341
216.522
217.061
217.112
216.795
216.203
215.41
214.474
213.442
212.351
211.229
210.099
208.978
207.88
206.813
205.784
204.802
14.9233
25.0316
49.6825
80.4809
112.213
139.462
161.501
178.477
191.216
200.539
207.208
211.858
214.982
216.955
218.059
218.507
218.459
218.041
217.351
216.465
215.445
214.336
213.176
211.993
210.81
209.642
208.501
207.398
206.338
205.328
14.1377
23.7149
47.9813
79.2649
111.514
139.409
161.983
179.399
192.491
202.058
208.879
213.607
216.752
218.703
219.756
220.135
220.009
219.51
218.739
217.776
216.683
215.508
214.288
213.052
211.82
210.61
209.432
208.296
207.207
206.172
13.3938
22.4004
46.0598
77.5736
110.672
139.224
162.369
180.285
193.73
203.567
210.572
215.408
218.6
220.555
221.581
221.912
221.728
221.164
220.328
219.301
218.147
216.916
215.645
214.363
213.09
211.843
210.633
209.467
208.353
207.296
12.6901
21.1138
44.0273
75.6937
109.411
138.803
162.59
181.035
194.887
205.037
212.257
217.23
220.498
222.481
223.502
223.807
223.581
222.969
222.08
221.001
219.797
218.519
217.204
215.882
214.574
213.295
212.056
210.865
209.728
208.651
12.0262
19.8587
41.9184
73.6025
107.628
138.061
162.613
181.635
195.938
206.442
213.909
219.048
222.418
224.453
225.49
225.786
225.536
224.89
223.962
222.841
221.595
220.277
218.925
217.569
216.23
214.923
213.659
212.446
211.289
210.194
11.4024
18.642
39.7476
71.3875
105.888
136.952
162.337
182.045
196.843
207.728
215.499
220.83
224.33
226.441
227.515
227.82
227.562
226.895
225.939
224.786
223.507
222.155
220.772
219.387
218.022
216.69
215.405
214.172
212.997
211.886
10.8185
17.4704
37.5322
69.1172
103.589
135.565
161.73
182.146
197.539
208.871
216.952
222.537
226.199
228.412
229.544
229.877
229.625
228.951
227.978
226.802
225.498
224.121
222.713
221.303
219.915
218.563
217.259
216.009
214.819
213.693
10.2743
16.3495
35.2812
66.8204
101.567
134.007
160.922
182.032
198.001
209.801
218.235
224.087
227.97
230.325
231.539
231.915
231.687
231.019
230.042
228.855
227.534
226.139
224.711
223.283
221.877
220.508
219.188
217.924
216.721
215.582
9.76931
15.2844
32.9964
63.9113
98.9171
132.151
159.89
181.748
198.338
210.628
219.425
225.539
229.6
232.105
233.45
233.908
233.718
233.065
232.092
230.901
229.573
228.165
226.724
225.282
223.863
222.482
221.149
219.873
218.658
217.509
9.30289
14.2825
30.7247
60.8292
95.8997
129.98
158.611
181.274
198.54
211.358
220.56
226.974
231.247
233.899
235.335
235.868
235.739
235.121
234.161
232.97
231.634
230.215
228.758
227.298
225.86
224.46
223.111
221.821
220.595
219.437
8.87406
13.3479
28.4896
57.6243
92.4305
127.382
157.04
180.592
198.589
211.979
221.627
228.375
232.895
235.723
237.279
237.889
237.806
237.223
236.288
235.107
233.77
232.342
230.874
229.4
227.946
226.53
225.165
223.859
222.618
221.444
8.48152
12.4825
26.3147
54.3319
89.1403
124.427
155.183
179.688
198.476
212.489
222.628
229.748
234.544
237.573
239.271
239.981
239.963
239.421
238.507
237.339
236.005
234.573
233.094
231.606
230.137
228.706
227.325
226.003
224.746
223.556
8.12375
11.6866
24.217
50.9517
85.7974
120.935
152.993
178.537
198.186
212.881
223.563
231.097
236.203
239.459
241.324
242.151
242.215
241.726
240.846
239.697
238.372
236.939
235.453
233.951
232.463
231.012
229.611
228.269
226.993
225.786
7.79905
10.9596
22.2149
47.4331
82.4131
117.535
150.613
177.17
197.721
213.151
224.43
232.42
237.87
241.383
243.435
244.397
244.556
244.133
243.297
242.176
240.867
239.443
237.959
236.457
234.966
233.508
232.097
230.744
229.455
228.236
7.50566
10.3001
20.3279
43.8441
78.2818
113.869
147.941
175.552
197.066
213.293
225.227
233.715
239.545
243.343
245.605
246.719
246.986
246.637
245.85
244.759
243.465
242.047
240.563
239.054
237.553
236.082
234.657
233.289
231.986
230.75
7.24172
9.70572
18.5715
40.2651
73.9192
109.911
144.95
173.678
196.221
213.306
225.947
234.977
241.225
245.339
247.835
249.12
249.509
249.245
248.513
247.456
246.181
244.77
243.283
241.766
240.252
238.766
237.323
235.937
234.615
233.36
7.00536
9.17337
16.9551
36.7374
69.3865
105.709
141.519
171.5
195.164
213.182
226.573
236.199
242.909
247.373
250.13
251.607
252.133
251.964
251.296
250.279
249.026
247.624
246.136
244.611
243.085
241.582
240.121
238.716
237.373
236.098
6.79474
8.69971
15.4856
33.3077
64.6599
101.105
137.575
168.94
193.835
212.879
227.089
237.374
244.593
249.445
252.493
254.184
254.864
254.803
254.209
253.238
252.012
250.622
249.134
247.602
246.063
244.544
243.064
241.638
240.274
238.977
6.608
8.28098
14.1656
30.0229
59.7219
96.2698
132.827
165.828
192.133
212.337
227.464
238.484
246.271
251.554
254.927
256.856
257.71
257.772
257.261
256.344
255.15
253.774
252.29
250.751
249.2
247.664
246.164
244.716
243.329
242.01
6.44329
7.91317
12.9936
26.9376
54.9593
91.3817
128.178
162.409
190.111
211.552
227.682
239.52
247.935
253.699
257.433
259.631
260.68
260.881
260.465
259.611
258.454
257.097
255.617
254.074
252.51
250.956
249.436
247.965
246.554
245.21
6.29877
7.59207
11.9641
24.0721
49.8547
85.3228
123.25
158.555
187.705
210.479
227.716
240.463
249.573
255.872
260.012
262.513
263.783
264.142
263.835
263.053
261.94
260.606
259.135
257.587
256.011
254.439
252.897
251.401
249.965
248.594
6.17265
7.31346
11.07
21.4748
44.8437
79.1525
117.916
154.076
184.804
209.049
227.524
241.267
251.161
258.065
262.664
265.507
267.028
267.566
267.386
266.687
265.626
264.321
262.86
261.31
259.721
258.131
256.566
255.044
253.58
252.181
6.06318
7.07316
10.3007
19.16
40.0071
73.1175
111.157
148.419
181.174
207.139
227.032
241.893
252.678
260.268
265.386
268.617
270.424
271.17
271.133
270.532
269.533
268.262
266.816
265.265
263.665
262.056
260.466
258.917
257.423
255.993
5.96865
6.8672
9.6448
17.1291
35.4022
67.357
104.981
143.136
177.298
204.883
226.259
242.335
254.115
262.473
268.178
271.85
273.983
274.964
275.095
274.608
273.682
272.453
271.026
269.477
267.867
266.238
264.623
263.045
261.519
260.057
5.88741
6.69183
9.09082
15.3758
31.0661
60.6673
97.845
137.711
173.021
202.204
225.146
242.559
255.454
264.667
271.033
275.206
277.712
278.965
279.289
278.935
278.095
276.918
275.516
273.973
272.354
270.706
269.066
267.456
265.897
264.399
5.81792
6.5435
8.62737
13.8891
27.1377
53.9833
90.6707
130.803
167.803
198.852
223.568
242.501
256.621
266.814
273.937
278.684
281.619
283.186
283.735
283.537
282.8
281.685
280.315
278.783
277.157
275.491
273.823
272.181
270.586
269.05
5.75868
6.4191
8.24327
12.6479
23.6678
47.4191
83.4775
122.845
161.495
194.654
221.393
242.063
257.576
268.893
276.882
282.289
285.717
287.647
288.457
288.442
287.827
286.788
285.459
283.942
282.312
280.628
278.933
277.257
275.622
274.045
5.70818
6.31538
7.9279
11.6271
20.6833
41.0921
74.9811
115.112
154.487
189.718
218.609
241.194
258.278
270.882
279.857
286.018
290.014
292.364
293.479
293.677
293.206
292.259
290.982
289.486
287.855
286.154
284.43
282.717
281.041
279.419
5.665
6.22923
7.67129
10.7995
18.1866
35.2816
66.1589
105.586
146.15
183.741
215.03
239.762
258.649
272.702
282.818
289.857
294.514
297.355
298.824
299.273
298.974
298.136
296.921
295.453
293.825
292.107
290.353
288.6
286.878
285.206
5.62787
6.15774
7.46417
10.1371
16.1484
30.1528
57.4428
95.4031
135.97
176.128
210.245
237.506
258.515
274.254
285.717
293.787
299.222
302.639
304.527
305.272
305.175
304.468
303.33
301.898
300.275
298.541
296.754
294.957
293.184
291.457
5.59566
6.09824
7.29815
9.61312
14.5198
25.792
49.1361
84.652
125.433
166.888
204.077
234.233
257.707
275.434
288.501
297.784
304.139
308.24
310.627
311.727
311.873
311.324
310.28
308.893
307.281
305.529
303.707
301.863
300.033
298.243
5.56735
6.04842
7.16575
9.20307
13.2417
22.2084
41.565
74.4764
114.677
157.066
196.817
229.956
256.149
276.165
291.052
301.781
309.238
314.163
317.153
318.685
319.129
318.776
317.85
316.523
314.927
313.16
311.301
309.403
307.51
305.65
5.54208
6.00651
7.06044
8.88591
12.2566
19.3526
34.868
63.7353
103.502
145.631
187.793
224.226
253.526
276.211
293.245
305.703
314.478
320.398
324.123
326.182
326.995
326.887
326.113
324.867
323.3
321.524
319.627
317.672
315.709
313.771
5.51889
5.97123
6.97481
8.63623
11.4818
17.0413
28.9318
52.5556
89.1155
131.977
174.867
215.001
248.052
274.084
293.897
308.575
319.085
326.328
331.043
333.827
335.156
335.404
334.861
333.753
332.252
330.491
328.569
326.563
324.528
322.507
5.49127
5.93421
6.89517
8.41495
10.8262
15.1248
23.8448
41.8488
73.2979
114.849
158.781
202.942
240.57
270.991
294.55
312.223
325.121
334.174
340.244
344.02
346.056
346.79
346.564
345.643
344.233
342.49
340.533
338.455
336.323
334.186
5.46579
5.90072
6.83469
8.26756
10.4067
13.9035
20.482
33.941
59.5158
97.984
142.311
188.907
230.971
266.017
293.708
314.812
330.43
341.6
349.267
354.221
357.104
358.426
358.589
357.907
356.621
354.917
352.936
350.788
348.554
346.294
5.44218
5.87099
6.7871
8.16455
10.1301
13.1093
18.2627
28.3519
48.2904
81.842
125.27
172.533
218.982
258.919
291.149
316.118
334.837
348.475
357.993
364.321
368.198
370.216
370.844
370.451
369.32
367.673
365.676
363.458
361.115
358.721
5.41877
5.84352
6.74725
8.0889
9.94365
12.5889
16.803
24.5218
39.7349
67.5034
108.122
154.422
204.152
249.174
286.433
315.815
338.158
354.618
366.322
374.274
379.326
382.169
383.351
383.305
382.367
380.794
378.787
376.495
374.036
371.494
5.39616
5.81753
6.71198
8.02966
9.81317
12.2427
15.8398
21.9424
33.551
55.6481
91.6145
136.88
187.251
236.862
279.344
313.625
340.119
359.885
374.176
384.044
390.49
394.315
396.16
396.533
395.829
394.354
392.344
389.976
387.39
384.688
5.37426
5.7926
6.67953
7.98032
9.71733
12.0071
15.1989
20.2117
29.2148
46.4285
76.8831
120.821
171.895
223.257
270.223
309.525
340.586
364.145
381.388
393.528
401.642
406.651
409.301
410.189
409.781
408.438
406.441
404
401.28
398.402
5.353
5.76852
6.6489
7.93696
9.6428
11.8418
14.7671
19.0478
26.2188
39.5493
64.1532
103.277
153.057
207.206
258.626
303.197
339.285
367.14
387.823
402.64
412.723
419.144
422.767
424.287
424.25
423.086
421.123
418.614
415.752
412.682
5.33238
5.74518
6.61956
7.89728
9.58129
11.7207
14.4711
18.2621
24.1684
34.6085
54.0234
87.2287
133.404
188.497
244.232
294.25
335.83
368.548
393.224
411.125
423.552
431.668
436.469
438.762
439.192
438.261
436.361
433.79
430.777
427.496
5.31239
5.72255
6.59122
7.85996
9.52768
11.6272
14.2629
17.7275
22.7703
31.1393
46.3832
73.7129
115.916
167.877
226.576
282.361
329.865
368.006
397.253
418.772
433.983
444.11
450.32
453.55
454.552
453.919
452.114
449.49
446.317
442.803
5.29304
5.70062
6.56376
7.82427
9.47898
11.5508
14.1108
17.3589
21.8156
28.7291
40.7922
62.7167
99.3191
149.815
206.668
267.563
321.162
365.256
399.682
425.399
443.81
456.327
464.225
468.585
470.287
470.03
468.357
465.69
462.347
458.575
5.27435
5.67938
6.53712
7.78986
9.43346
11.485
13.9944
17.0989
21.1598
27.0618
36.7908
54.2097
84.6728
130.607
186.29
250.254
309.746
360.176
400.344
430.829
452.953
468.285
478.16
483.856
486.394
486.591
485.089
482.385
478.855
474.792
5.2563
5.65886
6.5113
7.75654
9.39015
11.4259
13.9006
16.9098
20.7046
25.9096
33.9663
47.8715
72.6149
112.777
165.925
229.018
294.323
351.855
398.638
434.688
461.204
479.799
492.034
499.328
502.868
503.613
502.321
499.58
495.835
491.437
5.23892
5.63904
6.48628
7.72423
9.34852
11.3712
13.8208
16.7663
20.3832
25.1115
31.9884
43.267
63.1727
97.2937
147.901
209.075
275.802
340.23
394.229
436.636
468.286
490.756
505.832
515.034
519.773
521.176
520.139
517.359
513.367
508.58
5.22218
5.61992
6.46206
7.69289
9.30831
11.3194
13.7501
16.6519
20.1501
24.5551
30.6085
39.9712
55.9893
84.0276
128.743
187.471
255.306
325.525
386.952
436.416
473.998
501.077
519.502
531.016
537.221
539.439
538.73
535.927
531.662
526.437
5.20608
5.60152
6.43865
7.66252
9.26937
11.27
13.6852
16.5562
19.9747
24.1616
29.646
37.6379
50.6951
73.4663
111.844
168.005
236.104
308.256
376.547
433.563
477.951
510.5
532.958
547.32
555.344
558.596
558.334
555.551
551.004
545.297
5.19061
5.58382
6.41605
7.63308
9.23164
11.2224
13.6245
16.4725
19.8366
23.8769
28.9715
35.9952
46.856
65.2999
97.1354
147.192
213.216
287.944
362.692
427.636
479.693
518.644
545.976
563.813
574.106
578.69
579.047
576.363
571.544
565.317
5.17575
5.5668
6.39422
7.60458
9.19504
11.1763
13.5667
16.3965
19.7223
23.6638
28.4937
34.8423
44.1139
59.2096
85.2412
128.255
189.023
263.648
344.009
417.581
478.45
524.967
558.164
580.176
593.287
599.562
600.752
598.267
593.191
586.396
5.16149
5.55046
6.37317
7.57698
9.15952
11.1317
13.5112
16.3256
19.6231
23.497
28.1478
34.0305
42.1687
54.7511
75.9894
112.236
168.512
242.142
323.328
404.23
474.132
529.102
569.115
596.115
612.66
620.997
623.229
621.028
615.684
608.242
5.14781
5.53479
6.35287
7.55026
9.12505
11.0884
13.4575
16.2584
19.5338
23.3599
27.889
33.4527
40.7937
51.5332
68.9568
98.7383
147.447
216.457
297.879
386.339
465.787
530.333
578.346
611.335
631.955
642.796
646.295
644.441
638.78
630.563
5.13468
5.51977
6.33332
7.52443
9.09164
11.0464
13.4056
16.1941
19.4509
23.2417
27.687
33.0337
39.8226
49.2421
63.7908
88.1739
129.24
191.672
270.419
364.369
453.477
528.483
585.663
625.722
651.185
665.042
670.057
668.598
662.527
653.358
5.12209
5.50539
6.31452
7.4995
9.05931
11.0057
13.3554
16.1323
19.3731
23.1364
27.5224
32.7212
39.131
47.6214
60.0583
80.1739
114.271
169.212
244.587
338.954
436.887
523.042
590.671
639.092
670.447
688.039
694.903
693.923
687.349
677.031
5.11002
5.49163
6.29644
7.47549
9.0281
10.9665
13.307
16.0731
19.2996
23.0406
27.3832
32.4801
38.6314
46.4756
57.3913
74.2452
102.392
149.545
221.12
313.339
416.135
513.38
592.722
651.105
689.721
711.901
721.159
720.873
713.776
702.13
5.09843
5.47849
6.27909
7.45238
8.99802
10.9287
13.2606
16.0165
19.23
22.9522
27.2616
32.2869
38.2622
45.6623
55.5019
69.9323
93.2274
132.532
195.429
280.77
385.418
496.16
589.652
660.463
708.327
736.437
748.891
749.644
742.033
728.853
5.0873
5.46595
6.26244
7.43016
8.96906
10.8923
13.2159
15.9623
19.164
22.8697
27.1525
32.1256
37.9797
45.0766
54.1665
66.8473
86.4197
119.019
173.358
254.956
356.908
475.715
582.333
666.953
725.901
761.44
778.079
780.302