/*--------------------------------*- C++ -*----------------------------------*\
| =========                 |                                                 |
| \\      /  F ield         | OpenFOAM: The Open Source CFD Toolbox           |
|  \\    /   O peration     | Version:  2312                                  |
|   \\  /    A nd           | Website:  www.openfoam.com                      |
|    \\/     M anipulation  |                                                 |
\*---------------------------------------------------------------------------*/
FoamFile
{
    version     2.0;
    format      ascii;
    arch        "LSB;label=32;scalar=64";
    class       volScalarField;
    location    "constant";
    object      Dkf;
}
// * * * * * * * * * * * * * * * * * * * * * * * * * * * * * * * * * * * * * //

dimensions      [0 0 0 0 0 0 0];

internalField   nonuniform List<scalar> 
29400
(
0.393028
0.324864
0.464032
0.508137
0.362112
0.480239
0.371035
0.472675
0.372533
0.484018
0.38065
0.454366
0.359259
0.396057
0.292384
0.352949
0.297243
0.325991
0.270928
0.292613
0.25953
0.163349
0.124884
0.163821
0.118897
0.160737
0.11465
0.161801
0.1158
0.313062
0.373149
0.270309
0.213554
0.225377
0.123523
0.0859187
0.0823178
0.0868744
0.0864991
0.0714706
0.0782122
0.0980463
0.102915
0.116787
0.0966333
0.124895
0.0962463
0.161431
0.107409
0.165754
0.107169
0.169327
0.111638
0.179325
0.112788
0.195629
0.116084
0.18748
0.110671
0.178729
0.547619
0.316862
0.283325
0.209331
0.182843
0.13972
0.159128
0.156178
0.157648
0.151101
0.131499
0.127794
0.124646
0.141767
0.142689
0.128684
0.131351
0.160113
0.141604
0.152925
0.156462
0.191977
0.159986
0.181919
0.143372
0.182068
0.147675
0.197895
0.146509
0.186907
0.386291
0.370561
0.302333
0.258644
0.221117
0.209295
0.192858
0.213543
0.202905
0.208188
0.186538
0.186218
0.184742
0.186981
0.192391
0.193258
0.17953
0.189579
0.188182
0.20479
0.194638
0.202887
0.198151
0.198795
0.195657
0.190633
0.205467
0.196294
0.213374
0.209644
0.359593
0.287778
0.294758
0.274891
0.257961
0.233111
0.221944
0.212186
0.206651
0.189806
0.177688
0.186072
0.185588
0.198837
0.195161
0.189801
0.187296
0.175748
0.163508
0.166675
0.160632
0.160482
0.160648
0.160156
0.174186
0.165208
0.174236
0.158679
0.18025
0.171422
0.343132
0.292508
0.271969
0.238629
0.223005
0.226706
0.217089
0.206582
0.196876
0.185473
0.186523
0.166864
0.162526
0.162103
0.156864
0.156521
0.171295
0.193461
0.194525
0.195951
0.192408
0.200932
0.196479
0.224522
0.215059
0.214094
0.203958
0.208137
0.211817
0.204609
0.357783
0.336152
0.301807
0.257896
0.254714
0.223252
0.235441
0.214097
0.214761
0.196652
0.211088
0.190522
0.210545
0.189418
0.202353
0.20048
0.194183
0.19087
0.189706
0.193722
0.201383
0.200641
0.205821
0.201836
0.209254
0.20852
0.219136
0.19748
0.206887
0.199336
0.329011
0.387529
0.305002
0.294896
0.283165
0.270687
0.272467
0.260721
0.252202
0.249205
0.248911
0.257479
0.24769
0.241972
0.234902
0.232502
0.226939
0.235197
0.229074
0.233066
0.220859
0.232834
0.216182
0.22017
0.216371
0.225403
0.221125
0.223411
0.216121
0.225082
0.386076
0.422058
0.432418
0.355115
0.317367
0.305511
0.293541
0.295868
0.291065
0.289284
0.284722
0.280551
0.266102
0.25873
0.264881
0.257686
0.254533
0.251033
0.250289
0.246945
0.239667
0.262221
0.245555
0.247731
0.23823
0.249652
0.239112
0.253564
0.2433
0.253627
0.372024
0.448049
0.430784
0.434127
0.366276
0.336433
0.342065
0.322741
0.329991
0.317142
0.3207
0.308786
0.297555
0.295899
0.28535
0.280045
0.275075
0.268056
0.26379
0.255805
0.257987
0.251742
0.261721
0.263143
0.266916
0.255768
0.259416
0.261656
0.260462
0.25641
0.387255
0.456106
0.427129
0.437219
0.451268
0.364983
0.364843
0.36427
0.359195
0.3455
0.344997
0.343946
0.320634
0.326028
0.308007
0.294052
0.284855
0.28838
0.283326
0.281114
0.277098
0.273082
0.267173
0.27258
0.271275
0.267975
0.268572
0.264557
0.272692
0.268331
0.389741
0.450954
0.443874
0.469465
0.523863
0.43951
0.411696
0.384807
0.378355
0.365584
0.367219
0.364243
0.351878
0.35529
0.330574
0.338367
0.322559
0.326259
0.30691
0.303884
0.291785
0.29504
0.286655
0.284057
0.284338
0.280421
0.277846
0.270576
0.272551
0.268624
0.391013
0.452497
0.477681
0.498332
0.499814
0.478751
0.462542
0.435123
0.412294
0.383603
0.392547
0.366884
0.360703
0.353039
0.354144
0.355274
0.34292
0.345447
0.328866
0.337227
0.313918
0.328752
0.30825
0.306944
0.306589
0.303725
0.3023
0.300715
0.292693
0.288653
0.406541
0.463429
0.500013
0.495818
0.574012
0.506394
0.510617
0.491151
0.455263
0.431262
0.421028
0.396654
0.386799
0.379791
0.372692
0.367163
0.369615
0.361388
0.351384
0.355049
0.345877
0.346618
0.333891
0.332562
0.323018
0.336844
0.319451
0.323949
0.311699
0.316524
0.41066
0.506858
0.534318
0.519551
0.528072
0.524143
0.531738
0.500487
0.499855
0.487021
0.467014
0.434848
0.425888
0.41161
0.400545
0.391694
0.38729
0.379574
0.38357
0.374573
0.367299
0.370249
0.363129
0.36045
0.353174
0.360045
0.345122
0.345567
0.336256
0.34064
0.431231
0.505624
0.538931
0.527461
0.530427
0.527253
0.542575
0.53554
0.527977
0.522086
0.516648
0.485875
0.474298
0.45441
0.439864
0.423133
0.418974
0.409831
0.408083
0.394716
0.395256
0.386622
0.383926
0.377504
0.37219
0.365784
0.365911
0.366915
0.356859
0.356495
0.434165
0.506307
0.548193
0.537257
0.527147
0.526639
0.541744
0.539543
0.543542
0.534611
0.531842
0.508519
0.520994
0.500434
0.495986
0.458649
0.448659
0.43835
0.437638
0.422951
0.425745
0.41217
0.401689
0.395781
0.397851
0.388446
0.389831
0.383184
0.38638
0.375194
0.434867
0.510462
0.545021
0.53954
0.541711
0.534127
0.548528
0.546796
0.558767
0.552556
0.542623
0.529688
0.528215
0.51358
0.513666
0.492326
0.490713
0.470666
0.466315
0.459405
0.443141
0.433165
0.429103
0.422913
0.422601
0.419581
0.42641
0.415384
0.413603
0.41397
0.443029
0.522809
0.552115
0.55623
0.545141
0.547582
0.556723
0.55676
0.563253
0.564205
0.56598
0.549969
0.539039
0.51858
0.518853
0.499912
0.509209
0.47957
0.484818
0.472986
0.46952
0.461802
0.466723
0.452864
0.457815
0.448638
0.460465
0.448959
0.453682
0.450448
0.457509
0.508843
0.546738
0.560728
0.553659
0.545338
0.560154
0.563626
0.572695
0.569574
0.580488
0.568129
0.556081
0.538733
0.529776
0.524632
0.524457
0.507234
0.506319
0.486872
0.491359
0.480391
0.476298
0.469541
0.4701
0.464733
0.470409
0.459681
0.467841
0.46198
0.470471
0.521014
0.554193
0.641258
0.558814
0.553211
0.574749
0.574793
0.585555
0.590442
0.590172
0.585282
0.575334
0.558524
0.558586
0.544609
0.539103
0.522033
0.524239
0.510706
0.512486
0.499869
0.496329
0.490087
0.487652
0.480151
0.485394
0.479463
0.488996
0.476962
0.486874
0.509425
0.531776
0.610139
0.558546
0.577159
0.58436
0.595889
0.608836
0.602506
0.604533
0.599957
0.587638
0.576831
0.571187
0.55682
0.555609
0.537137
0.537137
0.528381
0.525353
0.520132
0.510763
0.507879
0.502735
0.504351
0.498924
0.504578
0.493657
0.496647
0.498975
0.503541
0.526181
0.553137
0.559953
0.584579
0.589535
0.612814
0.620975
0.617892
0.614057
0.61184
0.600849
0.594851
0.585961
0.579888
0.57206
0.558971
0.551581
0.54966
0.544238
0.54262
0.541287
0.533124
0.523264
0.528127
0.522557
0.524922
0.51833
0.518667
0.504142
0.503062
0.533015
0.552936
0.553608
0.583233
0.597333
0.61949
0.627196
0.631869
0.634868
0.622226
0.616286
0.616716
0.606231
0.594421
0.583535
0.581887
0.568086
0.567211
0.559407
0.564506
0.551006
0.557988
0.545777
0.553066
0.541397
0.546356
0.539145
0.542382
0.501233
0.504984
0.533291
0.556291
0.553606
0.580871
0.599068
0.616165
0.633036
0.642375
0.638027
0.643079
0.642382
0.626198
0.616058
0.611617
0.591241
0.600344
0.584346
0.587402
0.575997
0.583051
0.575309
0.582071
0.563573
0.564844
0.559091
0.561093
0.553753
0.559704
0.50285
0.505628
0.54085
0.558267
0.550551
0.584531
0.599653
0.624946
0.642783
0.654125
0.648438
0.654853
0.65589
0.642488
0.62716
0.626442
0.610863
0.605445
0.592998
0.606316
0.597343
0.589233
0.629251
0.626545
0.617721
0.620051
0.610387
0.612539
0.611749
0.613585
0.504442
0.500499
0.54207
0.565264
0.55247
0.579293
0.599283
0.63893
0.644353
0.656589
0.659511
0.662996
0.663638
0.655488
0.645987
0.63945
0.636342
0.658017
0.664605
0.654336
0.655086
0.639113
0.636827
0.588708
0.585938
0.607057
0.595769
0.615404
0.593814
0.605331
0.52442
0.502759
0.54754
0.561804
0.550412
0.580064
0.607824
0.638643
0.647927
0.666699
0.674589
0.669923
0.672358
0.668554
0.665452
0.6886
0.692797
0.673616
0.634072
0.625087
0.604531
0.619954
0.603075
0.620981
0.6096
0.624824
0.604178
0.628707
0.602809
0.624234
0.524102
0.498173
0.547055
0.56348
0.547291
0.590274
0.609606
0.635558
0.647941
0.662944
0.687922
0.681019
0.67868
0.687656
0.710816
0.679828
0.652268
0.655467
0.631846
0.644816
0.622901
0.638948
0.617077
0.636164
0.609414
0.634118
0.606782
0.631604
0.609425
0.63241
0.530696
0.492674
0.636267
0.565574
0.550901
0.592122
0.613085
0.631605
0.656379
0.670142
0.691549
0.692405
0.691588
0.7063
0.680569
0.678982
0.667722
0.670273
0.65596
0.668211
0.634357
0.65113
0.625619
0.64459
0.619361
0.645874
0.614619
0.644823
0.614728
0.636103
0.533291
0.494051
0.552374
0.557093
0.559442
0.598195
0.615233
0.638364
0.660478
0.680995
0.689558
0.692266
0.738978
0.699696
0.696197
0.697651
0.675413
0.685308
0.66915
0.676047
0.648939
0.663857
0.638084
0.655622
0.631915
0.657664
0.628316
0.649526
0.621396
0.644947
0.532102
0.490889
0.543013
0.561375
0.570822
0.60848
0.62041
0.652385
0.663066
0.688368
0.694373
0.702301
0.715504
0.721237
0.710172
0.706691
0.69173
0.692476
0.674538
0.684137
0.664401
0.680972
0.654648
0.668852
0.64804
0.666057
0.64059
0.666972
0.640937
0.660809
0.528789
0.489353
0.535328
0.565416
0.572607
0.601145
0.630057
0.654461
0.669455
0.701888
0.709067
0.751045
0.714787
0.724073
0.720708
0.710688
0.709992
0.705312
0.684447
0.692902
0.679002
0.691212
0.6654
0.684337
0.65566
0.684505
0.657425
0.677082
0.652114
0.672596
0.525183
0.495918
0.525872
0.572438
0.564114
0.603675
0.62292
0.665461
0.678689
0.713593
0.711764
0.741009
0.723002
0.730457
0.7287
0.726977
0.720966
0.718682
0.695586
0.704225
0.690202
0.705961
0.674982
0.700131
0.672973
0.697466
0.666505
0.690724
0.667621
0.685714
0.526473
0.494535
0.528335
0.573233
0.57194
0.614446
0.631494
0.677005
0.686902
0.717218
0.722305
0.730929
0.733388
0.739075
0.730539
0.736691
0.732885
0.732477
0.716513
0.72247
0.708287
0.715124
0.692942
0.710232
0.688696
0.707979
0.683782
0.70517
0.683513
0.698548
0.543062
0.494143
0.529258
0.579024
0.585202
0.626462
0.645214
0.686014
0.695896
0.716772
0.731783
0.744299
0.737484
0.749712
0.74552
0.750824
0.73754
0.744407
0.7337
0.73968
0.714902
0.729537
0.711888
0.727266
0.70745
0.721289
0.703706
0.719018
0.701145
0.721287
0.552877
0.502892
0.520728
0.57213
0.591731
0.62591
0.650617
0.69581
0.708639
0.723156
0.74134
0.755709
0.754055
0.767165
0.756874
0.763309
0.747123
0.754117
0.741736
0.745984
0.727465
0.742112
0.728273
0.734685
0.718929
0.731534
0.71452
0.722487
0.713557
0.733062
0.556301
0.507584
0.519944
0.572499
0.602831
0.630861
0.672719
0.71121
0.716745
0.73098
0.74284
0.764434
0.766171
0.780069
0.768922
0.773414
0.763461
0.765979
0.753048
0.752266
0.736129
0.748651
0.731984
0.743388
0.727861
0.737933
0.726219
0.738859
0.727054
0.740409
0.550448
0.508309
0.523028
0.571584
0.606314
0.634143
0.668783
0.703418
0.737105
0.736536
0.745416
0.765987
0.770596
0.782772
0.779907
0.786632
0.770417
0.774472
0.759576
0.765495
0.751083
0.757965
0.74205
0.757577
0.747912
0.755819
0.748489
0.757847
0.757739
0.772754
0.547269
0.510011
0.518147
0.565179
0.615824
0.639044
0.669594
0.710656
0.755879
0.774661
0.778303
0.789064
0.795588
0.805232
0.805681
0.811979
0.799113
0.797011
0.776168
0.778664
0.7658
0.774379
0.77642
0.791233
0.782395
0.784535
0.776253
0.782165
0.775302
0.783209
0.542943
0.518751
0.518592
0.56841
0.618952
0.647436
0.695544
0.747794
0.780017
0.805112
0.808641
0.815311
0.823727
0.824449
0.819193
0.829087
0.835834
0.835719
0.81208
0.817631
0.799418
0.805155
0.796284
0.796678
0.79691
0.79761
0.788674
0.794448
0.789187
0.794939
0.544954
0.534325
0.521332
0.570736
0.605779
0.676967
0.717766
0.755336
0.782907
0.79802
0.811747
0.815284
0.837891
0.831842
0.823652
0.839687
0.837368
0.833003
0.82815
0.830144
0.815853
0.823538
0.811266
0.813964
0.806854
0.811989
0.801595
0.804415
0.796879
0.808868
0.551478
0.534618
0.518089
0.560574
0.621761
0.706117
0.727122
0.747443
0.780032
0.802465
0.822742
0.819295
0.828227
0.833053
0.82713
0.831863
0.835222
0.836457
0.831673
0.837828
0.834148
0.838174
0.833695
0.827992
0.822848
0.830571
0.818214
0.819981
0.811114
0.822385
0.553968
0.528892
0.51146
0.571025
0.647201
0.701284
0.723291
0.753814
0.792643
0.809029
0.845677
0.859481
0.837124
0.844496
0.833293
0.845392
0.844591
0.842956
0.834056
0.839001
0.840254
0.840335
0.838137
0.837541
0.835138
0.834652
0.832992
0.833555
0.829007
0.83018
0.557186
0.531883
0.513058
0.586227
0.648173
0.712934
0.734435
0.764105
0.790912
0.812242
0.835513
0.858485
0.845693
0.854161
0.849619
0.84412
0.843581
0.853585
0.846897
0.850458
0.847723
0.850378
0.850415
0.847514
0.845232
0.840029
0.841506
0.838513
0.845491
0.847553
0.566236
0.531909
0.505208
0.617471
0.642261
0.716417
0.740722
0.76836
0.787604
0.817741
0.842843
0.859408
0.859363
0.87142
0.864589
0.861058
0.859454
0.861428
0.859616
0.862253
0.861291
0.860771
0.861714
0.86538
0.867843
0.864574
0.863873
0.854862
0.853257
0.855022
0.569795
0.53672
0.507041
0.629972
0.647487
0.711588
0.745898
0.778546
0.796743
0.816424
0.854685
0.867992
0.869234
0.878666
0.876413
0.877128
0.869634
0.87563
0.874244
0.871928
0.873779
0.871902
0.871093
0.869655
0.87318
0.868731
0.86973
0.864442
0.867147
0.868602
0.565983
0.527257
0.517198
0.632404
0.652143
0.705348
0.752142
0.782826
0.8066
0.830058
0.859871
0.87488
0.906597
0.889563
0.8895
0.89339
0.888835
0.888929
0.885176
0.888716
0.887022
0.88587
0.882402
0.881407
0.883413
0.878574
0.882395
0.875482
0.878918
0.880049
0.568244
0.524693
0.531207
0.631562
0.638058
0.706813
0.749317
0.79403
0.816964
0.836202
0.867073
0.889466
0.906322
0.89055
0.911493
0.902606
0.905513
0.904119
0.905169
0.902332
0.903973
0.899482
0.898138
0.899051
0.900835
0.891856
0.891877
0.890613
0.890713
0.890163
0.58745
0.532892
0.778436
0.637502
0.638179
0.716357
0.752666
0.793356
0.829276
0.848829
0.878316
0.888371
0.901663
0.919339
0.91475
0.919615
0.914544
0.913686
0.914458
0.913662
0.917616
0.915648
0.912966
0.912697
0.909893
0.905928
0.902861
0.908271
0.903621
0.907033
0.611212
0.545139
0.86541
0.638357
0.64406
0.7302
0.761614
0.817374
0.837709
0.862597
0.876078
0.903741
0.905451
0.936956
0.919939
0.920557
0.931568
0.928182
0.927937
0.924271
0.931378
0.928291
0.925759
0.92505
0.91757
0.921203
0.914014
0.924452
0.914803
0.922265
0.613425
0.564814
0.537138
0.657413
0.66596
0.734164
0.764796
0.835466
0.849127
0.882497
0.886041
0.915534
0.911896
0.920676
0.934159
0.928032
0.944745
0.933371
0.94008
0.937936
0.941435
0.935883
0.935323
0.940965
0.933929
0.933218
0.931148
0.93826
0.931464
0.937072
0.610053
0.585999
0.547285
0.653489
0.666741
0.752
0.765429
0.845391
0.858521
0.888269
0.89549
0.918005
0.930893
0.933124
0.961067
0.939923
0.951675
0.944077
0.9533
0.948796
0.948302
0.950778
0.94963
0.950374
0.946814
0.949129
0.950971
0.951035
0.947709
0.953449
0.607952
0.599168
0.537133
0.649234
0.662716
0.7451
0.775527
0.848387
0.87485
0.89748
0.907503
0.933168
0.938162
0.938109
0.958959
0.976634
0.965296
0.962385
0.968886
0.963836
0.96341
0.967258
0.964641
0.965109
0.960566
0.968615
0.961289
0.968415
0.962705
0.972276
0.658373
0.627254
0.533346
0.679894
0.665243
0.766925
0.769864
0.857376
0.873249
0.899387
0.919051
0.941123
0.945496
0.952571
0.962649
0.982711
0.976242
0.972665
0.976906
0.978923
0.976493
0.983722
0.976746
0.979651
0.978313
0.984651
0.979912
0.986693
0.982968
0.98841
0.646122
0.639785
0.530529
0.864111
0.657637
0.784572
0.774439
0.862823
0.883556
0.913134
0.921871
0.942321
0.946769
0.961315
0.967808
0.970018
0.996248
0.978941
0.984435
0.98852
0.985261
0.992377
0.992587
0.980713
0.990991
0.988293
0.982649
0.991839
0.98141
0.993688
0.631957
0.63262
0.518762
0.704788
0.650111
0.765651
0.766019
0.856267
0.88376
0.914361
0.929594
0.946353
0.953985
0.968479
0.975377
0.985545
0.991247
1.00071
0.991491
0.999485
0.993449
1.00523
1.00106
0.993488
0.993612
0.992466
0.992106
0.990104
0.992279
1.00131
0.630233
0.62608
0.508953
0.655304
0.648779
0.776171
0.777864
0.854492
0.894497
0.927647
0.935339
0.948378
0.962193
0.978045
0.984381
0.999306
0.996969
1.017
1.01245
1.01648
1.00375
1.01456
1.01522
1.0106
1.00117
1.00967
1.00734
1.01419
0.999895
1.01072
0.618459
0.650903
0.518148
0.624534
0.862462
0.767395
0.784403
0.854628
0.896548
0.926237
0.935657
0.96521
0.96683
0.980807
1.0003
1.00433
1.00647
1.01617
1.01107
1.01924
1.02874
1.02974
1.02428
1.03387
1.00628
1.01907
1.00412
1.02287
1.00796
1.02131
0.625762
0.655313
0.514203
0.613151
0.742794
0.756478
0.781913
0.848329
0.888393
0.942282
0.944559
0.958598
0.971318
0.993815
1.01056
1.01531
1.01732
1.02417
1.01627
1.0212
1.01692
1.02705
1.02794
1.02612
1.0235
1.03865
1.01858
1.03429
1.01287
1.02909
0.645476
0.649033
0.495632
0.610343
0.657391
0.780877
0.801076
0.865445
0.903775
0.944371
0.941277
0.957143
0.974729
0.988798
1.00113
1.01292
1.02161
1.02974
1.03439
1.02983
1.03603
1.03372
1.02352
1.03019
1.02861
1.05724
1.02865
1.03434
1.02105
1.03069
0.6494
0.598953
0.496245
0.595858
0.654457
0.882733
0.841265
0.901741
0.950132
0.937825
0.949256
0.982172
0.971096
0.994805
0.995675
1.0119
1.02001
1.02863
1.03392
1.03214
1.03753
1.04139
1.01953
1.04863
1.0202
1.02675
1.01957
1.02609
1.01611
1.03225
0.621234
0.595996
0.490801
0.59619
0.660102
0.818787
0.833686
0.906466
0.937564
0.952641
0.975586
0.978572
0.973394
0.98831
0.995006
1.00421
1.01902
1.03271
1.03801
1.03704
1.03731
1.04825
1.0235
1.0364
1.0305
1.04119
1.02784
1.03431
1.02512
1.033
0.609681
0.615788
0.490903
0.608853
0.634595
0.773539
0.864959
0.895877
0.937532
0.960308
0.97556
0.982214
0.998604
1.00948
0.995895
1.00434
1.01373
1.04532
1.03309
1.05713
1.03614
1.03502
1.04069
1.04604
1.0348
1.04526
1.03042
1.04349
1.02402
1.04103
0.621871
0.612223
0.508229
0.643899
0.63699
0.752113
0.928934
0.89971
0.940821
0.961153
0.971337
0.988493
0.993843
0.995277
1.00743
1.00859
1.02047
1.01954
1.03836
1.05123
1.0363
1.03428
1.03521
1.05524
1.02775
1.06016
1.02285
1.05436
1.02224
1.0547
0.638124
0.588721
0.513811
0.637841
0.632763
0.734126
0.824756
0.896464
0.928004
0.955536
0.980705
0.982155
0.994591
0.999163
1.00638
1.01512
1.02395
1.02681
1.04415
1.03851
1.04203
1.02053
1.0485
1.04985
1.03067
1.04865
1.03385
1.04714
1.03001
1.04095
0.640822
0.607147
0.52661
0.594442
0.623715
0.726789
0.820208
0.928607
0.926994
0.95302
0.991706
0.98985
1.005
1.00648
1.00685
1.01279
1.0166
1.02233
1.0306
1.0404
1.02638
1.04745
1.03646
1.04701
1.03475
1.03933
1.03086
1.03038
1.02759
1.02444
0.600068
0.587682
0.543919
0.552978
0.629312
0.738479
0.824477
0.89948
0.960357
0.960223
0.982647
0.985072
1.00133
1.00157
1.01505
1.02147
1.02054
1.02533
1.02621
1.03714
1.02611
1.04705
1.03239
1.04345
1.03217
1.03299
1.0262
1.031
1.02749
1.03133
0.593651
0.577378
0.553982
0.54711
0.615516
0.745417
0.825736
0.870693
0.972659
0.959579
0.979767
0.986007
0.998297
0.994336
1.0109
1.01126
1.0265
1.03079
1.02916
1.03639
1.02606
1.04052
1.02596
1.036
1.02961
1.03532
1.02803
1.04106
1.02436
1.03845
0.595713
0.592777
0.565993
0.566582
0.611372
0.723482
0.820288
0.882135
0.931979
0.96976
0.969948
0.985736
0.99597
1.00367
1.02028
1.017
1.03318
1.03365
1.04357
1.04351
1.02986
1.03186
1.02893
1.03982
1.03322
1.03701
1.03056
1.04084
1.02819
1.03039
0.590557
0.593194
0.55963
0.572597
0.598344
0.698516
0.788815
0.853608
0.921504
0.958423
1.00096
0.968587
0.986987
0.995854
1.00773
1.01131
1.02671
1.02461
1.04195
1.04007
1.02546
1.02899
1.03265
1.03103
1.03177
1.03168
1.02942
1.03326
1.02755
1.02492
0.602543
0.616955
0.560667
0.581295
0.600146
0.706864
0.787573
0.860418
0.909683
0.927044
0.988094
1.01149
1.00348
0.984501
0.999574
1.00451
1.00524
1.01939
1.02436
1.0291
1.01024
1.02469
1.02738
1.03128
1.02495
1.0242
1.02726
1.028
1.02425
1.02072
0.605787
0.669265
0.590939
0.60507
0.617037
0.696049
0.794587
0.869424
0.914024
0.949681
0.968347
0.975344
1.0086
1.00615
1.02088
1.01204
1.02428
1.02888
1.03391
1.03645
1.02574
1.02887
1.03063
1.02415
1.02407
1.01717
1.01595
1.02542
1.01239
1.01491
0.598806
0.708898
0.614166
0.614644
0.63759
0.705841
0.789493
0.864502
0.909746
0.944235
0.956696
0.981083
0.988357
1.00857
1.01375
1.00733
1.03197
1.03206
1.03887
1.0314
1.02339
1.03705
1.04278
1.05604
1.04163
1.03969
1.03122
1.04263
1.03113
1.03505
0.640122
0.719148
0.60202
0.612801
0.643164
0.713067
0.786164
0.849736
0.899702
0.942895
0.95228
0.97936
0.970231
1.0005
0.998687
1.02734
1.02229
1.0204
1.0401
1.03414
1.03316
1.05956
1.05034
1.03742
1.0473
1.03478
1.04107
1.03246
1.0337
1.02937
0.632034
0.757717
0.629787
0.618855
0.634846
0.702592
0.771367
0.835989
0.892864
0.940112
0.960598
0.981999
0.976459
1.0044
0.995228
1.02065
1.0215
1.0298
1.02935
1.01757
1.03316
1.03371
1.05001
1.02913
1.04419
1.0252
1.04057
1.01977
1.03151
1.02994
0.645217
0.771364
0.630887
0.631259
0.635157
0.713123
0.761658
0.829966
0.887636
0.932934
0.945747
0.979237
0.98276
0.995969
0.99248
1.01366
1.01699
1.0228
1.0424
1.02963
1.03701
1.02502
1.03141
1.03643
1.0479
1.02521
1.04044
1.02925
1.02963
1.02547
0.657167
0.805526
0.653296
0.623099
0.626592
0.694768
0.758565
0.817982
0.867697
0.927067
0.935557
0.965062
0.966954
0.99025
0.985646
1.01433
1.01947
1.01858
1.02873
1.01726
1.03911
1.01746
1.0512
1.02547
1.02799
1.02259
1.03034
1.03016
1.02806
1.02836
0.666594
0.807942
0.633001
0.665642
0.620184
0.667398
0.738874
0.813758
0.861785
0.910117
0.929187
0.960777
0.949858
0.986766
0.986274
1.00541
1.01199
1.02357
1.02886
1.03081
1.03492
1.01985
1.0413
1.03192
1.03983
1.03013
1.03992
1.02116
1.02975
1.02071
0.673995
0.822106
0.668208
0.697739
0.609862
0.666146
0.743703
0.809961
0.848309
0.912573
0.927784
0.979615
0.957068
0.989821
0.991879
1.01411
1.00996
1.03017
1.03149
1.0278
1.03016
1.02002
1.04259
1.03115
1.03834
1.02259
1.03062
1.02103
1.0249
1.01281
0.694275
0.814247
0.670049
0.717136
0.602041
0.66223
0.738265
0.791338
0.847865
0.901873
0.909435
0.961507
0.960793
0.994428
0.983688
1.00801
0.996342
0.985337
1.00591
1.00126
1.0182
1.00724
1.01744
1.00849
1.03503
1.02211
1.02557
1.0187
1.0209
1.00912
0.730033
0.835861
0.685894
0.699088
0.582963
0.636492
0.723513
0.776492
0.839214
0.892005
0.90925
0.951405
0.958221
0.948456
0.971133
0.981319
0.99073
0.989949
1.00421
1.00102
1.00989
1.00782
1.0278
0.997669
1.01041
0.998555
1.01025
0.994648
1.00797
1.006
0.76671
0.872882
0.697729
0.771155
0.58158
0.631677
0.726709
0.77283
0.824641
0.884639
0.910869
0.932286
0.940439
0.949374
0.971344
0.980789
0.993045
0.986742
0.997623
0.995912
1.00787
1.0117
1.01199
0.998464
1.0055
0.996176
1.00862
0.987606
1.002
0.995307
0.81239
0.875842
0.708522
0.725357
0.576987
0.637703
0.721369
0.752158
0.818379
0.881754
0.886225
0.914927
0.942701
0.946133
0.97026
0.976561
0.988163
0.996087
0.997099
0.997004
1.00632
1.00169
1.01013
1.00051
1.00915
0.995596
1.00057
0.990491
1.00045
0.994802
0.878746
0.864828
0.71429
0.720347
0.580992
0.616013
0.695459
0.751825
0.80466
0.834597
0.878232
0.901968
0.933127
0.947776
0.967557
0.977282
0.985692
0.991265
0.994999
0.993096
1.00586
1.00644
1.00876
1.00392
1.0049
1.0027
1.0004
0.990924
0.990148
0.998538
0.892225
0.846311
0.726517
0.714856
0.57752
0.609223
0.682513
0.745291
0.759295
0.835641
0.861623
0.895507
0.931685
0.94911
0.965483
0.97326
0.985348
0.992645
0.993446
0.997602
1.00345
1.00268
1.00714
1.00749
1.00781
1.00206
0.999654
1.00095
0.990584
0.999515
0.894049
0.860713
0.736806
0.73659
0.569939
0.601138
0.667629
0.727549
0.744675
0.806167
0.84865
0.886639
0.91719
0.945276
0.954557
0.970757
0.984362
0.988804
0.993765
0.995792
0.999551
1.00857
1.0068
1.00681
1.00427
1.00605
1.00328
1.00516
0.997238
1.0019
0.908534
0.882949
0.731761
0.747641
0.568632
0.596136
0.649811
0.698732
0.738789
0.792963
0.847404
0.883328
0.915203
0.936129
0.953213
0.96924
0.97662
0.986555
0.993215
0.99633
0.99896
1.00576
1.00836
1.00791
1.01067
1.01251
1.00775
1.00989
1.0034
1.00802
0.914142
0.907402
0.756114
0.762031
0.576536
0.585537
0.630474
0.669119
0.74941
0.781924
0.841126
0.866922
0.907166
0.934793
0.94996
0.968069
0.975393
0.988583
0.993229
0.998053
1.00121
1.00637
1.00691
1.0089
1.01092
1.01143
1.00956
1.01081
1.00729
1.00897
0.925951
0.917759
0.774743
0.763675
0.607033
0.5723
0.610899
0.663232
0.726221
0.764543
0.833454
0.856804
0.899661
0.931095
0.947198
0.967138
0.973636
0.986592
0.992917
0.998462
1.00165
1.00472
1.00633
1.00526
1.01255
1.00943
1.00962
1.01035
1.0079
1.00843
0.930052
0.934935
0.816297
0.773813
0.625638
0.590726
0.593733
0.649341
0.707333
0.757787
0.830382
0.859351
0.898978
0.928023
0.946704
0.964162
0.975791
0.987543
0.993348
0.997685
1.00116
1.00384
1.00893
1.00526
1.0127
1.01044
1.0106
1.00943
1.00899
1.00791
0.931098
0.929595
0.845471
0.772292
0.644844
0.59089
0.568838
0.63821
0.69772
0.749817
0.82266
0.850375
0.898147
0.923346
0.942372
0.962786
0.973013
0.985487
0.991857
0.996148
0.999952
1.00325
1.00561
1.00715
1.01225
1.0094
1.00982
1.00602
1.00823
1.00743
0.931358
0.942214
0.871966
0.781545
0.680614
0.58879
0.560608
0.616776
0.663645
0.725202
0.812957
0.841439
0.890336
0.92043
0.939845
0.960726
0.972508
0.982957
0.990078
0.994533
0.999451
1.00264
1.00435
1.00836
1.00802
1.00955
1.00945
1.00814
1.00793
1.00687
0.928859
0.950051
0.9022
0.807401
0.689914
0.612021
0.54696
0.587995
0.65211
0.713806
0.80019
0.831387
0.879611
0.913523
0.935587
0.958688
0.969473
0.980679
0.987185
0.993841
0.999562
1.00177
1.00411
1.00831
1.00794
1.00884
1.00829
1.00765
1.00729
1.00714
0.923337
0.948035
0.913403
0.838266
0.707741
0.643596
0.547731
0.587147
0.664555
0.694829
0.775586
0.813725
0.87303
0.908312
0.933202
0.957773
0.968953
0.98036
0.986299
0.99278
0.998976
1.00108
1.00313
1.00784
1.00663
1.00821
1.00844
1.00755
1.00704
1.0071
0.932978
0.94989
0.923653
0.865126
0.742294
0.652029
0.559258
0.584017
0.657596
0.685266
0.765484
0.80294
0.863218
0.904575
0.928718
0.951359
0.965479
0.979661
0.984376
0.991227
0.996331
1.00121
1.00104
1.00658
1.00658
1.00863
1.00724
1.00711
1.00823
1.00737
0.941568
0.95233
0.939922
0.901481
0.781269
0.723908
0.593504
0.584225
0.643511
0.689855
0.743186
0.797108
0.855997
0.898021
0.925124
0.948352
0.963259
0.977035
0.982635
0.98904
0.995301
1.00014
1.00047
1.00438
1.00535
1.00766
1.00708
1.00616
1.00697
1.00657
0.949556
0.950536
0.935131
0.92165
0.821886
0.743378
0.626656
0.58709
0.641439
0.681396
0.724105
0.781262
0.839373
0.864858
0.904289
0.93234
0.948705
0.973487
0.977723
0.98804
0.994452
0.999218
1.001
1.00345
1.01222
1.00577
1.00592
1.00641
1.00672
1.00597
0.938574
0.932596
0.934372
0.929868
0.848433
0.761376
0.640472
0.585465
0.60404
0.668956
0.714437
0.75932
0.81132
0.86309
0.898303
0.926554
0.947645
0.966307
0.982636
0.987274
0.997163
0.99869
1.00431
1.00395
1.01001
1.00428
1.00814
1.00603
1.00973
1.00648
0.981336
0.991652
0.98779
0.965704
0.922321
0.86095
0.74727
0.625854
0.606681
0.64619
0.713114
0.771538
0.815564
0.862113
0.901321
0.928188
0.946794
0.961928
0.973469
0.984422
0.9905
0.994065
0.997808
1.00042
1.00247
1.00259
0.99452
1.00403
1.00677
1.00675
0.978736
0.992264
0.996462
0.988552
0.965074
0.908439
0.815497
0.721507
0.651465
0.647918
0.700729
0.734825
0.799316
0.850335
0.887425
0.922902
0.93982
0.957767
0.971022
0.982192
0.987651
0.992876
0.996545
1.00238
1.00001
0.999239
1.00447
1.00416
1.00612
1.00589
1.00635
0.993043
0.994451
0.996093
0.97613
0.944373
0.856488
0.770626
0.6827
0.646488
0.685216
0.731684
0.781195
0.831747
0.874711
0.913653
0.935508
0.95363
0.96736
0.977372
0.985894
0.991143
0.995739
1.00202
1.00095
1.00153
1.00246
1.00343
1.00326
1.00326
1.01138
0.996075
0.993735
0.999842
0.989516
0.966612
0.907484
0.831128
0.73201
0.687292
0.684693
0.721653
0.765843
0.832563
0.859807
0.902338
0.927231
0.947382
0.964754
0.974559
0.984164
0.989371
0.994578
0.998152
1.00232
1.00583
1.00125
1.00186
1.00294
1.00256
1.01202
0.998463
0.995664
1.00032
0.999263
0.983096
0.938532
0.870287
0.785909
0.708894
0.677779
0.709345
0.754367
0.795884
0.84153
0.887564
0.917173
0.938281
0.958121
0.971631
0.980903
0.988133
0.99348
0.998007
0.999814
1.00072
0.996531
0.996397
1.00259
1.00388
1.00544
1.00274
0.999612
0.997835
1.00228
0.99279
0.962958
0.899079
0.836027
0.743887
0.698027
0.706296
0.742157
0.784108
0.827833
0.877508
0.908029
0.934915
0.954303
0.9685
0.978646
0.989601
0.992888
0.996718
0.99921
1.00043
1.00605
1.00307
1.00313
1.00415
1.0054
1.00543
1.00429
0.9997
1.00354
1.00046
0.982704
0.915894
0.872944
0.790516
0.721536
0.700685
0.732649
0.767694
0.812355
0.861593
0.898403
0.927326
0.947846
0.965817
0.976924
0.985774
0.992893
0.997182
0.999255
1.00383
1.00187
1.00372
1.00321
1.00206
1.00441
1.00423
1.00401
1.0031
1.0037
1.00329
0.989547
0.965137
0.905552
0.8361
0.760435
0.71218
0.724761
0.756413
0.798504
0.84193
0.88763
0.919718
0.941851
0.960964
0.975219
0.985207
0.991043
0.996315
0.998804
0.999955
1.00447
1.00359
1.00287
1.00159
1.00544
1.00462
1.00652
1.00692
1.00437
1.00603
0.998766
0.980126
0.940474
0.871559
0.798833
0.730667
0.726658
0.752874
0.786699
0.833102
0.873132
0.918332
0.935336
0.957187
0.972026
0.981605
0.988733
0.999324
0.99902
1.00275
1.00329
1.00428
1.00194
1.00318
1.00736
1.00639
1.0076
1.00783
1.00756
1.00531
1.00401
0.987098
0.964666
0.906184
0.84253
0.772891
0.725191
0.741811
0.777869
0.817024
0.859866
0.89934
0.930541
0.949147
0.969161
0.978727
0.986463
0.994051
0.997475
1.00342
1.00289
1.00395
1.0054
1.00319
1.00697
1.00725
1.00782
1.00837
1.0074
1.00644
1.00541
0.995938
0.978244
0.942717
0.886051
0.812259
0.753216
0.747982
0.775517
0.804084
0.842867
0.885771
0.921313
0.945394
0.965101
0.97665
0.986401
0.992441
0.996652
1.00187
1.00323
1.00363
1.00535
1.00232
1.00667
1.00641
1.00857
1.00836
1.00805
1.00828
1.00775
1.00293
0.989346
0.965706
0.918606
0.862296
0.78767
0.756144
0.764419
0.79522
0.832206
0.875495
0.905097
0.937215
0.957799
0.973962
0.987004
0.990394
0.99632
0.997737
1.00314
1.00327
1.00461
1.0022
1.00642
1.00687
1.00828
1.00921
1.00928
1.00894
1.00797
1.00663
1.00009
0.980494
0.937075
0.900022
0.82821
0.772728
0.763699
0.783416