/*--------------------------------*- C++ -*----------------------------------*\
| =========                 |                                                 |
| \\      /  F ield         | OpenFOAM: The Open Source CFD Toolbox           |
|  \\    /   O peration     | Version:  2312                                  |
|   \\  /    A nd           | Website:  www.openfoam.com                      |
|    \\/     M anipulation  |                                                 |
\*---------------------------------------------------------------------------*/
FoamFile
{
    version     2.0;
    format      ascii;
    arch        "LSB;label=32;scalar=64";
    class       volScalarField;
    location    "20000";
    object      Dw;
}
// * * * * * * * * * * * * * * * * * * * * * * * * * * * * * * * * * * * * * //

dimensions      [0 0 -2 0 0 0 0];

internalField   nonuniform List<scalar> 
29400
(
2.52332e+10
2.52378e+10
2.52451e+10
2.52532e+10
2.52616e+10
2.52694e+10
2.52762e+10
2.5282e+10
2.52868e+10
2.52909e+10
2.52943e+10
2.52971e+10
2.52994e+10
2.53014e+10
2.5303e+10
2.53044e+10
2.53056e+10
2.53066e+10
2.53075e+10
2.53082e+10
2.53089e+10
2.53095e+10
2.53099e+10
2.53104e+10
2.53107e+10
2.53111e+10
2.53114e+10
2.53116e+10
2.53119e+10
2.53121e+10
6.2513e+08
6.40062e+08
6.59562e+08
6.76883e+08
6.95955e+08
7.15318e+08
7.34404e+08
7.5263e+08
7.69662e+08
7.85347e+08
7.99647e+08
8.12589e+08
8.24242e+08
8.34696e+08
8.44047e+08
8.52396e+08
8.5984e+08
8.66473e+08
8.72384e+08
8.77653e+08
8.8235e+08
8.86539e+08
8.90278e+08
8.93621e+08
8.96614e+08
8.99299e+08
9.01713e+08
9.0389e+08
9.05867e+08
9.0773e+08
4.87255e+07
5.20305e+07
5.68395e+07
6.03685e+07
6.36554e+07
6.67823e+07
6.98433e+07
7.28459e+07
7.57817e+07
7.86377e+07
8.13984e+07
8.40487e+07
8.65747e+07
8.89651e+07
9.12118e+07
9.33099e+07
9.52582e+07
9.70586e+07
9.87161e+07
1.00237e+08
1.01629e+08
1.02901e+08
1.04061e+08
1.05118e+08
1.0608e+08
1.06957e+08
1.07755e+08
1.08482e+08
1.09145e+08
1.09767e+08
8.57046e+06
9.74436e+06
1.193e+07
1.34006e+07
1.45668e+07
1.55605e+07
1.64681e+07
1.73303e+07
1.81675e+07
1.89888e+07
1.9796e+07
2.05862e+07
2.13542e+07
2.20938e+07
2.2799e+07
2.34649e+07
2.40879e+07
2.46663e+07
2.51995e+07
2.56885e+07
2.61347e+07
2.65406e+07
2.69088e+07
2.72423e+07
2.75438e+07
2.78163e+07
2.80625e+07
2.82846e+07
2.84845e+07
2.8665e+07
2.8162e+06
3.36598e+06
4.42798e+06
5.27599e+06
5.94982e+06
6.50719e+06
6.99801e+06
7.45082e+06
7.88196e+06
8.30014e+06
8.70908e+06
9.10926e+06
9.49916e+06
9.87624e+06
1.02376e+07
1.05807e+07
1.09033e+07
1.12042e+07
1.14828e+07
1.17391e+07
1.19736e+07
1.21873e+07
1.23815e+07
1.25575e+07
1.27168e+07
1.28608e+07
1.29909e+07
1.31084e+07
1.32144e+07
1.33102e+07
1.31046e+06
1.5773e+06
2.24148e+06
2.83074e+06
3.30611e+06
3.69672e+06
4.03573e+06
4.3443e+06
4.63536e+06
4.91624e+06
5.19047e+06
5.45906e+06
5.72139e+06
5.97592e+06
6.22071e+06
6.45386e+06
6.67381e+06
6.87946e+06
7.07019e+06
7.24587e+06
7.40678e+06
7.55348e+06
7.68678e+06
7.80758e+06
7.91684e+06
8.01554e+06
8.10462e+06
8.185e+06
8.25752e+06
8.32309e+06
730066
892747
1.40386e+06
1.86506e+06
2.23693e+06
2.54037e+06
2.80156e+06
3.03818e+06
3.26126e+06
3.47713e+06
3.68889e+06
3.89742e+06
4.10214e+06
4.30164e+06
4.49416e+06
4.67797e+06
4.85159e+06
5.01398e+06
5.16449e+06
5.30288e+06
5.42937e+06
5.54443e+06
5.64867e+06
5.74284e+06
5.82773e+06
5.90415e+06
5.97288e+06
6.03466e+06
6.09019e+06
6.14e+06
465507
596914
1.02201e+06
1.40716e+06
1.71815e+06
1.97153e+06
2.18926e+06
2.38658e+06
2.57318e+06
2.75465e+06
2.93369e+06
3.11101e+06
3.28598e+06
3.45718e+06
3.62289e+06
3.78141e+06
3.9313e+06
4.07151e+06
4.20142e+06
4.32077e+06
4.42969e+06
4.52854e+06
4.61784e+06
4.69827e+06
4.77052e+06
4.83532e+06
4.89337e+06
4.94534e+06
4.99186e+06
5.03325e+06
336239
451701
815300
1.14674e+06
1.41628e+06
1.63702e+06
1.82751e+06
2.00093e+06
2.16578e+06
2.32698e+06
2.48689e+06
2.64604e+06
2.80374e+06
2.95857e+06
3.10884e+06
3.25287e+06
3.38922e+06
3.51684e+06
3.6351e+06
3.74373e+06
3.84278e+06
3.93257e+06
4.01358e+06
4.08641e+06
4.15171e+06
4.21014e+06
4.26237e+06
4.30901e+06
4.35065e+06
4.38751e+06
266976
369715
683158
971417
1.20863e+06
1.40493e+06
1.57585e+06
1.73265e+06
1.88268e+06
2.03024e+06
2.17734e+06
2.32435e+06
2.47053e+06
2.61448e+06
2.7545e+06
2.88896e+06
3.01645e+06
3.13591e+06
3.24668e+06
3.34849e+06
3.44135e+06
3.52552e+06
3.60146e+06
3.66969e+06
3.73084e+06
3.78552e+06
3.83436e+06
3.87794e+06
3.91679e+06
3.95113e+06
225398
316328
586525
837641
1.04736e+06
1.22325e+06
1.37818e+06
1.52167e+06
1.66002e+06
1.7969e+06
1.934e+06
2.07153e+06
2.20871e+06
2.34415e+06
2.47619e+06
2.60323e+06
2.72387e+06
2.83709e+06
2.9422e+06
3.03891e+06
3.1272e+06
3.20731e+06
3.27962e+06
3.34464e+06
3.40293e+06
3.45508e+06
3.50166e+06
3.54325e+06
3.58032e+06
3.61311e+06
197236
277088
509531
727958
913299
1.07105e+06
1.21179e+06
1.3435e+06
1.47149e+06
1.59891e+06
1.72712e+06
1.85621e+06
1.98536e+06
2.11318e+06
2.23807e+06
2.35847e+06
2.47301e+06
2.58067e+06
2.68078e+06
2.77302e+06
2.85734e+06
2.93394e+06
3.00317e+06
3.06548e+06
3.12141e+06
3.17149e+06
3.21627e+06
3.25628e+06
3.29198e+06
3.32361e+06
176001
245773
445371
634942
798402
939625
1.06728e+06
1.18798e+06
1.30624e+06
1.42468e+06
1.54441e+06
1.6654e+06
1.7868e+06
1.90725e+06
2.0252e+06
2.13914e+06
2.24773e+06
2.34998e+06
2.44521e+06
2.53309e+06
2.61355e+06
2.68674e+06
2.75297e+06
2.81268e+06
2.86633e+06
2.91443e+06
2.9575e+06
2.99602e+06
3.03044e+06
3.061e+06
158720
219590
390784
554955
698760
824854
940302
1.05059e+06
1.1595e+06
1.26923e+06
1.38066e+06
1.49366e+06
1.60738e+06
1.7205e+06
1.83152e+06
1.93896e+06
2.04156e+06
2.13834e+06
2.22862e+06
2.31206e+06
2.38857e+06
2.45826e+06
2.52143e+06
2.57844e+06
2.62974e+06
2.6758e+06
2.71709e+06
2.75406e+06
2.78714e+06
2.81658e+06
144012
197164
343905
485804
612012
724287
828376
928807
1.02874e+06
1.13001e+06
1.23331e+06
1.33844e+06
1.44455e+06
1.55036e+06
1.65443e+06
1.75535e+06
1.8519e+06
1.94311e+06
2.02835e+06
2.10724e+06
2.17969e+06
2.24578e+06
2.30575e+06
2.35995e+06
2.40879e+06
2.45268e+06
2.49208e+06
2.5274e+06
2.55904e+06
2.58727e+06
131191
177707
303461
425904
536419
636129
729702
820859
912237
1.00536e+06
1.10076e+06
1.19819e+06
1.2968e+06
1.39538e+06
1.49256e+06
1.58697e+06
1.67746e+06
1.76309e+06
1.84323e+06
1.91751e+06
1.98581e+06
2.0482e+06
2.1049e+06
2.15619e+06
2.20246e+06
2.2441e+06
2.2815e+06
2.31508e+06
2.34519e+06
2.37211e+06
119872
160698
268480
373984
470559
558898
642788
725277
808557
893887
981678
1.07164e+06
1.16296e+06
1.25448e+06
1.34488e+06
1.43288e+06
1.51736e+06
1.59744e+06
1.67249e+06
1.74215e+06
1.80629e+06
1.86494e+06
1.9183e+06
1.96664e+06
2.01028e+06
2.04959e+06
2.08495e+06
2.11671e+06
2.14522e+06
2.17076e+06
109804
145751
238172
328974
413215
491308
566327
640761
716429
794369
874890
957684
1.04196e+06
1.12662e+06
1.21042e+06
1.29216e+06
1.37076e+06
1.44537e+06
1.5154e+06
1.58049e+06
1.64049e+06
1.69542e+06
1.74544e+06
1.7908e+06
1.8318e+06
1.86876e+06
1.90202e+06
1.93193e+06
1.95882e+06
1.98293e+06
100803
132565
211877
289961
363328
432224
499153
566140
634692
705666
779287
855235
932757
1.01082e+06
1.08825e+06
1.16391e+06
1.23679e+06
1.30608e+06
1.3712e+06
1.4318e+06
1.48773e+06
1.53898e+06
1.58571e+06
1.62811e+06
1.66647e+06
1.70108e+06
1.73226e+06
1.76031e+06
1.78554e+06
1.80821e+06
92728.8
120893
189038
256153
319967
380641
440222
500355
562290
626730
693837
763290
834377
906124
977443
1.04726e+06
1.11462e+06
1.17875e+06
1.2391e+06
1.29533e+06
1.34728e+06
1.39494e+06
1.43842e+06
1.47792e+06
1.51368e+06
1.54596e+06
1.57507e+06
1.60128e+06
1.62486e+06
1.64609e+06
85463.9
110533
169180
226865
282314
335664
388595
442447
498254
556596
617586
680908
745893
811635
877116
941332
1.00339e+06
1.06255e+06
1.1183e+06
1.1703e+06
1.21839e+06
1.26255e+06
1.30288e+06
1.33954e+06
1.37275e+06
1.40276e+06
1.42983e+06
1.45422e+06
1.47618e+06
1.49597e+06
78912.8
101317
151898
201498
249648
296494
343431
391549
441706
494381
549652
607212
666440
726493
786429
845308
902294
956703
1.00803e+06
1.05596e+06
1.10033e+06
1.14111e+06
1.17838e+06
1.21228e+06
1.24302e+06
1.27081e+06
1.29589e+06
1.31849e+06
1.33887e+06
1.35724e+06
72994.6
93101.8
136843
179532
221332
262423
303974
346875
391842
439274
489219
541389
595209
649900
704589
758407
810571
860442
907546
951575
992370
1.0299e+06
1.06422e+06
1.09546e+06
1.1238e+06
1.14944e+06
1.17259e+06
1.19347e+06
1.21229e+06
1.22928e+06
67640.4
85766
123716
160513
196806
232820
269546
307718
347936
390534
435542
482690
531450
581106
630854
679890
727488
773051
816133
856442
893822
928235
959727
988413
1.01445e+06
1.03801e+06
1.0593e+06
1.0785e+06
1.09582e+06
1.11147e+06
62791.1
79206.3
112260
144047
175577
207124
239543
273442
309330
347488
387935
430424
474469
519417
564530
609067
652358
693848
733119
769895
804026
835469
864261
890501
914326
935899
955393
972987
988866
1.00321e+06
58395.2
73333.6
102251
129791
157212
184840
213424
243475
275427
309522
345774
383954
423624
464187
504970
545293
584538
622191
657866
691302
722355
750980
777205
801115
822834
842506
860288
876341
890833
903930
54407.8
68070.6
93499.4
117445
141331
165530
190709
217304
245691
276082
308487
342700
378324
414820
451573
487963
523423
557480
589775
620066
648215
674176
697971
719675
739394
757260
773412
787998
801167
813069
50789.2
63350.4
85839.5
106750
127602
148808
170971
194472
219640
246665
275555
306128
338027
370764
403782
436517
468449
499147
528280
555621
581043
604499
626005
645626
663457
679614
694224
707418
719331
730097
47504.6
59114.4
79128.9
97483.4
115737
134336
153835
174572
196843
220818
246509
273755
302235
331512
361081
390431
419091
446664
472849
497437
520309
541418
560777
578442
594498
609047
622204
634085
644812
654503
44522.7
55311.1
73244.7
89450.2
105483
121816
138966
157242
176912
198134
220923
245137
270492
296595
322992
349221
374856
399536
422985
445014
465511
484432
501787
517624
532018
545062
556855
567504
577117
585797
41815.7
51895.4
68080.9
82483.1
96621.1
110988
126073
142161
159504
178248
198412
219873
242382
265585
289076
312438
335288
357299
378221
397881
416177
433067
448560
462696
475544
487184
497706
507205
515777
523509
39358.6
48827.5
63545.8
76437.5
88962.3
101627
114898
129048
144313
160832
178629
197601
217525
238088
258927
279667
299963
319522
338119
355596
371861
386876
400646
413208
424623
434961
444304
452735
460339
467190
37128.8
46071.8
59560.1
71189
82342.7
93536.1
105218
117653
131066
145594
161265
177992
195578
213746
232172
250522
268487
285804
302270
317745
332145
345435
357620
368733
378826
387964
396219
403664
410372
416407
35106
43597
56055.4
66630.3
76620.7
86543.9
96835.4
107756
119525
132275
146041
160748
176227
192230
208471
224652
240496
255771
270294
283940
296634
308347
319080
328865
337747
345784
353039
359578
365463
370748
33271.8
41375.1
52972.3
62669.1
71674.4
80503
89580
99166.2
109477
120644
132707
145604
159189
173242
187511
201730
215654
229076
241834
253818
264961
275236
284647
293221
300998
308030
314373
320084
325218
329816
31609.4
39381.1
50259.4
59226.2
67398.7
75285.5
83303.3
91715.4
100736
110497
121041
132321
144208
156512
169006
181457
193649
205398
216561
227040
236778
245751
253964
261439
268214
274334
279849
284808
289258
293234
30103.5
37592.8
47872.1
56233.1
63703.4
70781.2
77876.5
85257.1
93137.7
101651
110845
120684
131055
141792
152696
163561
174196
184440
194167
203291
211763
219562
226693
233177
239048
244345
249112
253393
257226
260639
28740.4
35990.1
45771.8
53631.1
60510.6
66894.7
73187.8
79663.7
86539.1
93948.5
101945
110501
119522
128862
138345
147792
157034
165929
174369
182278
189614
196360
202521
208116
213175
217733
221829
225501
228780
231687
27507.2
34555.1
43924.6
51369.5
57753.7
63544.2
69140.5
74823.9
80814.2
87248.4
94183.8
101603
109424
117521
125740
133922
141922
149614
156905
163730
170052
175858
181152
185953
190287
194186
197683
200811
203595
206052
26392.4
33271.6
42301.2
49404.7
55375
60658.8
65651.2
70641.3
75853.2
81427.2
87424.9
93837.1
100595
107589
114686
121746
128642
135265
141535
147396
152816
157786
162311
166407
170098
173411
176377
179021
181367
183425
25385.4
32125.1
40876
47699.1
53325.2
58177.8
62647.3
67031.8
71560.3
76376.6
81547
87069.7
92888
98906.7
105009
111076
116994
122671
128037
133044
137668
141899
145743
149216
152338
155135
157631
159850
161809
163516
24476.5
31102.7
39626.5
46220
51561.6
56048.4
60066.4
63922.6
67851.7
72001.7
76443.3
81181.6
86170.5
91328.2
96553.9
101743
106799
111641
116210
120465
124386
127966
131212
134136
136759
139102
141186
143031
144650
146051
23656.8
30192.8
38533.5
44939.2
50047.6
54225.5
57854.4
61250.4
64654.7
68219.4
72019.8
76067.6
80326.1
84725.6
89179
93595.8
97892.7
102001
105869
109464
112769
115778
118499
120945
123131
125077
126800
128319
129643
130777
22918.6
29385.6
37580.2
43832.5
48751.4
52669.9
55964.3
58960.2
61905.5
64956.8
68194
71634.8
75251.2
78984.3
82759.2
86498
90129.2
93593.9
96848.8
99866
102632
105143
107407
109434
111240
112840
114251
115486
116554
117459
22255.4
28693.9
36775.1
42879
47645.7
51347.8
54355.6
57004.4
59548.8
62150.5
64893.5
67801.5
70854.3
74002.6
77182.7
80327.7
83376.4
86278.6
88997.9
91511.3
93807.8
95886.2
97752.2
99416.6
100892
102194
103334
104324
105172
105880
21662.4
28272.4
36253.4
42061.3
46707
50229.8
52993
55341.2
57536.2
59744.6
62054.7
64495.6
67054.4
69690.5
72350.1
74976
77516
79927.8
82180.8
84256.2
86145.4
87848.1
89369.9
90720.5
91911.4
92954.7
93861.5
94641.3
95300.6
95840.6
21135.6
28250.3
36179.1
41367.1
45915.8
49290.9
51845.9
53934.6
55825.7
57690.4
59621.7
61653.8
63780.1
65968.3
68173
70345.9
72442.8
74427.9
76276
77971.5
79508
80886
82110.8
83191
84136.7
84958.2
85665.1
86265
86763.4
87161.4
20671.7
28401.8
36407
40789.5
45256.7
48510
50888.1
52753.1
54380.2
55945.4
57545.7
59220.2
60968.4
62765.3
64573.2
66351.4
68062.8
69677.6
71174.6
72541.6
73773.6
74871.6
75840.7
76688.6
77423.9
78055.6
78591.5
79038.3
79400.3
79678.9
20269
28460.2
36647.5
40326.6
44719.2
47870.6
50097.6
51769.9
53167.9
54472.2
55783.7
57145.9
58564
60019.3
61481.4
62916.3
64292.9
65586.6
66780
67863.2
68832.7
69689.9
70439.5
71088.3
71643.7
72113.3
72503.8
72820.7
73067.8
73246.4
19926.9
28365.2
34373.9
39979.1
44298.3
47361.6
49457.3
50962.5
52161.7
53238.8
54298.3
55388
56518
57675.7
58836.7
59973.1
61059.4
62075.1
63006.2
63844.8
64588.5
65239
65800.5
66278.9
66680.8
67012.6
67279.7
67486.9
67637.4
67732.8
19767.5
28185.3
34250.1
39942.5
43994.5
46978.2
48955.7
50313.9
51339.2
52218
53057.6
53909.3
54788.1
55686.4
56585.5
57462.8
58297.4
59072.7
59777.4
60405.4
60955.2
61428.4
61829
62162.1
62433.3
62648
62810.8
62925.7
62995.5
63022
19895.4
27946
36752.4
40291.4
43814.5
46721.7
48588.1
49813.4
50684.2
51388.4
52035.1
52678.7
53338.1
54010.3
54681.4
55333.7
55950.3
56517.8
57027.2
57474
57857.3
58178.7
58441.8
58651.1
58811.2
58926.7
59001.6
59039.1
59041.7
59011.2
19946.5
27641.4
36642.1
40856
43764.9
46596.7
48355.6
49456.8
50187
50734.9
51210.8
51671.2
52138.1
52612.6
53085
53541.7
53969.3
54357
54698.1
54989
55229.3
55420.7
55566.4
55670.2
55736
55767.7
55768.5
55741.2
55688
55610.6
19857
27317.2
36494.6
41381.2
43844.1
46607.1
48262.7
49245.8
49844.7
50249.6
50571.6
50868.6
51165.3
51466
51764.4
52050.4
52313.6
52545.6
52741.1
52897.6
53015.1
53095.1
53140.5
53154.3
53140.1
53100.9
53039.4
52958
52858.4
52742.4
19655.4
26983.6
36328.9
41752
44041.2
46750.6
48312.4
49184.4
49658.9
49930.4
50111
50260.1
50404.2
50550.3
50695.1
50831.1
50950.5
51046.8
51116
51156.2
51167.7
51152
51111.3
51048.4
50966
50866.7
50752.7
50625.9
50487.8
50339.9
19377.7
26643.1
36155.1
40009.7
44339.5
47016.1
48501.7
49274
49632
49778.4
49827.6
49840.5
49845.8
49852.6
49860
49862.9
49855.4
49832.4
49791
49729.9
49649.4
49550.7
49435.8
49306.9
49166.2
49015.7
48857.2
48692.1
48521.7
48347.4
19048.2
26294.5
36010.2
40315.1
44732.1
47405.2
48827.1
49509
49762
49793.2
49720.5
49607.4
49485.1
49364.9
49248
49131.3
49010.3
48881.4
48742.2
48591.9
48430.6
48259.4
48079.8
47893.7
47702.5
47508
47311.3
47113.7
46916
46719.3
18680.1
25933.3
35844.6
42250.5
45257.3
47852.7
49264.4
49878.5
50039.3
49968.6
49785.2
49556.6
49317.2
49080.9
48850.8
48625.5
48402.2
48178.2
47951.7
47721.8
47488.9
47253.6
47017
46780.6
46545.3
46312.3
46082.5
45856.7
45635.4
45419.4
18278.7
25555.8
35664.9
40763
45563.5
48350.6
49774.3
50352.1
50446
50290.1
50010.1
49678.2
49333.2
48991.6
48658.7
48335.1
48019.3
47709.4
47404.2
47103.2
46806.2
46513.6
46226.3
45945.1
45670.7
45403.8
45144.8
44894.1
44651.9
44418.9
17844.6
25158
35510.6
41102.1
46878.2
48875.5
50341.5
50908.3
50957.4
50735.3
50374.5
49954.9
49517.3
49082.4
48657.6
48245.9
47847
47460
47084.2
46719.1
46364.8
46021.1
45688.5
45367.4
45058.1
44760.9
44475.8
44203
43942.3
43694
17375.1
24732.8
35318.7
41230.5
47506.6
49403.6
50946.7
51524.6
51550.2
51279.7
50854.3
50361.1
49846.9
49332.4
48827.1
48338.2
47865.9
47410.7
46972.3
46550.4
46144.9
45755.8
45383
45026.4
44686.1
44362
44053.8
43761.2
43483.9
43221.9
16865
24275.4
35138.1
42417.9
47933.9
49935
51577.8
52182.4
52202.2
51900.6
51427.4
50874.7
50293.8
49712.9
49141.8
48587.5
48051.6
47537.2
47044.5
46573.1
46123.1
45694.2
45286.2
44898.7
44531.1
44183.2
43854.5
43544.3
43252.2
42978
16318.1
23773.3
34949.9
41806.4
48293.5
50548.9
52227.5
52868.5
52896.5
52578.2
52071.3
51473
50838.9
50199.6
49571.4
48963.3
48376
47812.4
47273.4
46759.7
46271.5
45808.8
45370.7
44956.8
44566.3
44198.5
43852.4
43527
43221.8
42936.4
15754.7
23218.1
34705.5
42488.5
48610.7
51163.6
52877.7
53573.5
53621.5
53298.1
52768.9
52136.4
51460.6
50775.2
50099
49442.2
48810.1
48205.6
47629.3
47081.1
46561.4
46070.2
45606.8
45170.7
44761
44376.6
44016.4
43679.2
43364
43070.3
15185.8
22610.1
34416.1
41744.3
48869.6
51721.1
53530.1
54294.5
54370.4
54050.8
53508.3
52850.7
52142
51419.5
50704.4
50008.5
49338.6
48698.2
48088.9
47511.5
46966
46451.7
45967.8
45513.5
45087.8
44689.4
44317.1
43969.5
43645.6
43344.6
14615.9
21945.5
34095.5
42296.5
49108.8
52276.4
54240.4
55031.7
55139.4
54830.8
54282.1
53606.4
52871.8
52119
51371.5
50643.1
49941.6
49271.4
48634.8
48032.6
47465
46931.2
46430.8
45962.3
45524.3
45115.5
44734.3
44379.3
44049.1
43742.9
14047.1
21243.4
33710.1
41995.8
49340.7
52873.3
54915.9
55771.6
55926.6
55635.6
55086.5
54398.1
53642.9
52864.8
52089.9
51333.7
50605.2
49909.3
49249
48625.2
48038.3
47487.4
46972
46490.4
46041.2
45622.6
45233.1
44870.9
44534.6
44223.3
13486.8
20508.3
33229.4
42206.5
49634.9
53617.3
55612.5
56551.3
56735.4
56463.9
55918.5
55221.8
54450.3
53651
52852.6
52072.2
51319.9
50601.5
49920.1
49277.2
48673.1
48107
47578.1
47084.8
46625.4
46198
45800.7
45432
45090.1
44774
12936.3
19747.8
32682.8
42155.8
49667.5
54244.6
56309.4
57334.4
57563.4
57319.2
56781.3
56079.3
55294.4
54476.6
53657.1
52854.8
52081
51341.9
50641.3
49980.8
49360.8
48780.7
48239.3
47735.1
47266.2
46830.5
46426.1
46051.2
45703.9
45383.2
12397.3
18965.6
32062.6
42114.5
49576.7
54786.6
57015
58133.4
58414.7
58205.5
57677.4
56972.2
56175.9
55341.5
54502.7
53680.2
52886.2
52127.8
51409
50731.7
50096.6
49502.9
48949.6
48434.9
47956.8
47513.1
47101.8
46720.7
46368.2
46042.9
11871.9
18165.5
31357.3
41916.3
49946.2
55300.4
57739.3
58958.6
59292.6
59113.3
58610.3
57903.2
57097.6
56247.8
55390.9
54549.3
53736.1
52959
52222.5
51528.9
50878.8
50271.8
49706.7
49181.6
48694.3
48242.6
47824.3
47437.1
47079.2
46749.1
11362.4
17352.7
30571.3
42000.5
49955.7
55773.9
58467.6
59811.7
60209.2
60060
59565.2
58875.7
58064.2
57199.6
56325.6
55465.4
54633.4
53837.9
53083.7
52373.7
51708.7
51088.3
50511.2
49975.6
49479
49019.2
48593.6
48200.1
47836.6
47501.5
10870.8
16532.5
29683.4
42188.1
50420.4
56281.6
59209.9
60690.1
61165.7
61059.4
60571.3
59875.1
59071.1
58201.4
57311.7
56432.8
55582.3
54768.2
53996.3
53269.9
52589.9
51955.8
51366.5
50820
50313.9
49845.7
49412.7
49012.5
48643.1
48302.6
10399.5
15711.5
28674.7
41820.4
50442.2
56719.1
59954.7
61592.4
62161.5
62108.9
61639.8
60942.9
60121.9
59243.5
58351.8
57460.4
56590.4
55755.5
54964.7
54221.3
53525.8
52877.5
52275.6
51717.8
51202
50725.2
50284.4
49877.2
49501.5
49155.3
9950.17
14902.3
27586.1
41248.2
50362
57081.1
60757.5
62514.9
63196.7
63204.1
62765.2
62077.6
61252.1
60359.7
59446.3
58541.2
57662.5
56814.9
56008
55247
54534.9
53871
53254.3
52682.7
52153.8
51665.2
51214.4
50798.8
50416.1
50063.8
9524.26
14112.4
26423.1
40599.3
49865.3
57265.6
61464.8
63448.5
64266.9
64345.7
63945.9
63274.3
62449.9
61549.1
60620.8
59696.6
58796.5
57932.7
57112.3
56336.3
55608.1
54928.7
54297.3
53712
53170.5
52670.2
52208.7
51783.2
51391.5
51030.9
9122.63
13347.7
25186.8
39853.3
49670.4
57252.3
62116
64394.2
65373.9
65537.9
65186.8
64537
63717.7
62811.4
61871.1
60931
60012.6
59129.2
58288.8
57495.5
56751
56055
55407.4
54807
54252.1
53739.5
53266.6
52830.5
52428.9
52059.4
8745.89
12613.6
23887.1
38992.2
49686.2
57044.6
62695.5
65344
66517.5
66784.4
66494.2
65873.2
65062.9
64153.6
63202.9
62248.1
61312.6
60411.2
59552.6
58741.3
57979.2
57266.3
56602
55984.7
55413
54884.8
54397.4
53948.4
53535.2
53155.2
8394.33
11915.3
22532.5
37860.9
49849.2
57192.7
63340.3
66333
67711.2
68093.6
67876.3
67290.6
66493.2
65582.8
64622.8
63653.5
62701.1
61781.5
60904.6
60075.6
59297
58569.1
57891.4
57262.2
56679.4
56140.4
55642.8
55184
54761.4
54372.8
8067.92
11257.1
21156.1
36523.4
49326.4
57247.6
63975.5
67385.7
68959.6
69474.1
69344
68798.4
68017.3
67108
66139.2
65155.3
64184.7
63245.1
62347.6
61498.2
60699.7
59952.9
59257.3
58611.4
58013
57459.7
56948.9
56477.9
56044
55644.7
7766.29
10641.9
19781.7
35043.8
48633
57222.2
64599.5
68451.7
70276.9
70940.2
70906.5
70406.1
69645.3
68739.4
67763
66764.4
65774.7
64813.9
63894
63022
62201.3
61433.2
60717.1
60051.8
59435.2
58864.8
58338.1
57852.3
57404.7
56992.6
7488.85
10071
18427.6
33431.5
47865.5
57253.6
65120
69533.4
71670.2
72506.8
72569.5
72124
71388.9
70489.2
69506.3
68493.1
67483.8
66500.5
65556.8
64660.6
63816
63024.7
62286.1
61599.7
60963.2
60374.2
59830
59328
58865.4
58439.3
7234.85
9545.41
17111
31673.3
46905.1
57138.6
65458.2
70597.5
73118.9
74166.9
74342.6
73964.2
73261.2
72371
71382.9
70355.1
69325.6
68318.7
67349.6
66427.4
65557.1
64740.7
63977.9
63268.5
62610.4
62001.1
61438
60918.3
60439.2
59998
7003.35
9065.14
15850.4
29775.2
45646.7
56996.6
65355.4
71511.5
74582.7
75902.3
76226.1
75935.4
75274.6
74398.8
73407.6
72365.6
71315.2
70283.3
69287.2
68337.2
67439.1
66595.6
65806.7
65072.4
64390.7
63759.3
63175.5
62636.5
62139.6
61681.7
6793.28
8629.68
14663.1
27768.8
44531
57060.6
65679.1
72513.8
76113.5
77738.5
78235.6
78053.5
77444.5
76588.4
75596.7
74541.5
73469.6
72411.6
71386.7
70406.8
69478.7
68605.8
67788.7
67027.3
66319.9
65664.4
65058
64497.9
63981.3
63505.3
6603.41
8237.78
13563.7
25681.9
42660.2
55899.5
66061.8
73509.8
77682.1
79671.2
80379.6
80332.8
79786.2
78956.9
77968.6
76901.6
75808.3
74723
73667.6
72655.7
71695.2
70790.4
69942.5
69151.6
68416.1
67734.1
67102.9
66519.7
65981.6
65485.6
6432.32
7887.54
12562.5
23602.7
40606.9
54748.2
66372
74324.4
79230
81680.3
82661.8
82771.8
82311.1
81521.6
80543.3
79467.4
78353.3
77239.9
76152.2
75106
74110.5
73171.1
72289.7
71466.2
70700
69989
69330.6
68721.9
68160
67642
6280.28
7576.49
11663.1
21569.9
38327.1
53882.4
65425.3
74408.2
80580.3
83715.4
85064.9
85377.3
85035.7
84303.5
83344.5
82264
81130.3
79988.2
78866.5
77783.4
76750.3
75773.1
74855
73995.8
73195.9
72452.9
71764.4
71127.7
70539.6
69997.2
6145
7301.96
10865.9
19625.1
35768.9
53464.8
65526.5
75328.1
82207.7
85913.6
87648.2
88187.1
87991.1
87331.5
86400.7
85320.2
84168.6
82997.4
81840
80717.7
79643.6
78625.5
77667
76769
75931.8
75153.6
74431.9
73764
73146.9
72577.4
6024.7
7061.04
10168.3
17811.6
32913.1
51464.7
64838.4
76689.7
84035.2
88272.5
90421.3
91225.2
91209.5
90636.3
89743.9
88669.3
87502.4
86302.3
85107.7
83943.4
82825.1
81762.2
80759.6
79818.9
78940.6
78123.3
77364.8
76662.4
76013
75413.4
5918
6850.77
9565.3
16167.6
29965.8
49045.6
64454.8
77012.9
85580.1
90637.2
93347.6
94502
94692
94240.9
93407
92349.1
91171.9
89944.1
88711
87502.2
86336.1
85224.3
84173
83185.3
82261.4
81400.6
80601.1
79860.1
79174.6
78541.4
5823.47
6668.61
9049.52
14711.2
27017.5
46067.7
64327.9
76686.5
86709.7
92916.8
96391.1
98015.5
98473.5
98188.3
97436.9
96408.6
95227
93973.2
92700.7
91444.3
90226.5
89061.1
87956.2
86915.9
85941
85031.8
84186.4
83402.2
82676.3
82005.4
5739.64
6511.32
8612.63
13449.8
24181.9
42464.8
62210.1
77239.1
87879
95307.4
99638.5
101818
102607
102538
101890
100905
99726.2
98448.8
97136.1
95829.1
94555.1
93330.9
92166.6
91067.9
90036.1
89072.6
88175.7
87342.9
86571.3
85857.8
5665.01
6375.74
8245.64
12379.6
21571.2
38554.1
59183
75969.7
88395.4
97581.2
103031
105914
107132
107320
106818
105900
104736
103441
102088
100728
99392.8
98103.8
96873.6
95709.4
94614.2
93589.5
92634.3
91746.4
90923.1
90161.2
5598.36
6258.77
7939.45
11487.3
19253.7
34535.4
55546.8
74119.2
87418.6
99095.5
106264
110186
112030
112570
112281
111468
110339
109034
107643
106228
104827
103466
102162
100925
99757.7
98663.5
97641.9
96691.2
95808.8
94991.5
5538.55
6157.45
7685.23
10754.1
17263
30588.4
51220.8
71305.2
86628.9
99805
109255
114597
117301
118339
118365
117701
116633
115332
113908
112435
110963
109524
108138
106817
105568
104395
103297
102275
101324
100443
5484.52
6069.26
7474.74
10159.1
15603.2
26906
46377.7
69071.2
86373
100978
112451
119346
123067
124744
125137
124693
123729
122453
121006
119478
117931
116405
114927
113512
112171
110906
109721
108615
107587
106632
5435.39
5992.33
7300.36
9680.93
14254.5
23634.3
41065.4
64620.1
86237.5
101441
115233
124200
129285
131824
132720
132590
131778
130556
129097
127516
125890
124269
122688
121166
119717
118348
117062
115859
114739
113698
5389.85
5926.58
7154.79
9298.88
13180.7
20869.8
35795.9
58739.4
83105.8
102413
116967
128828
135828
139606
141254
141567
140994
139877
138434
136811
135105
133382
131685
130042
128471
126981
125577
124261
123033
121890
5335.72
5855.97
7010.92
8928.34
12167.6
18204.6
30074.5
50764.2
77102.7
100596
117900
133990
143965
149816
152792
153876
153775
152877
151501
149845
148044
146185
144330
142516
140768
139103
137527
136047
134662
133370
5286.65
5791.72
6898.33
8670.85
11487
16380.2
25723.7
43168.3
69290.7
96876.2
118243
137844
151563
160077
164811
167001
167549
167012
165790
164152
162278
160291
158271
156274
154335
152475
150708
149042
147479
146018
5242.15
5735.58
6809.36
8486.33
11023.1
15140.2
22590.2
36736.3
60572.3
90424.8
116967
139198
157968
170063
177164
180867
182314
182336
181369
179808
177894
175789
173603
171412
169263
167188
165207
163331
161566
159913
5198.89
5684.72
6735.44
8348.52
10700.2
14295
20395.6
31730.9
52198.3
82054.8
113345
137740
161836
178899
189355
195233
198034
198823
198292
196914
195016
192819
190473
188079
185704
183393
181173
179061
177067
175194
5157.93
5637.62
6671.21
8240.5
10468.9
13712.9
18876.1
28036.8
44957.6
72696.5
106883
136200
163169
186180
200985
209839
214556
216495
216657
215599
213795
211545
209051
206449
203832
201260
198773
196393
194140
192017
5118.88
5593.3
6613.37
8151.58
10296.9
13305.6
17825.2
25391.7
39162
63391.7
98247.6
135577
167843
193416
212404
224736
231899
235419
236492
235953
234365
232127
229512
226706
223832
220976
218193
215514
212965
210557
5081.51
5551.19
6559.93
8075.01
10163.4
13013.8
17094.5
23527.8
34781.7
55094.2
87644.8
127739
165239
198013
222784
239605
249957
255585
257949
258181
256940
254789
252087
249081
245938
242771
239656
236640
233756
231021
5045.7
5510.97
6509.72
8006.57
10054.7
12798.1
16580.4
22221.7
31586.4
48333.2
77063.9
117327
158523
198328
230987
253784
268403
276900
281089
282355
281681
279740
277011
273824
270401
266897
263413
260015
256747
253637
5011.36
5472.45
6462.03
7943.66
9962.23
12632.2
16211.9
21305
29300.5
43134.6
67605.8
105951
152324
193490
234594
266155
286627
299041
305768
308569
308794
307231
304563
301227
297522
293652
289756
285925
282218
278674
4978.43
5435.5
6416.47
7884.72
9880.34
12498.8
15940.8
20656.8
27679.4
39274.7
59717.1
94105.4
141768
191994
233965
275854
303956
321676
331906
336907
338364
337456
335003
331589
327617
323364
319015
314696
310486
306443
4946.88
5400.07
6372.79
7828.85
9805.66
12386.8
15734.4
20192.1
26531.7
36472
53524.6
83178.2
128743
183055
231144
282666
320187
344735
359546
367484
370687
370783
368713
365306
361091
356435
351587
346717
341930
337308
4916.66
5366.1
6330.86
7775.51
9736.1
12288.9
15570.7
19851.7
25716.1
34460.7
48849.4
73911.9
115285
171254
226266
281480
331657
366289
387830
400050
405854
407362
405986
402747
398353
393294
387906
382415
376968
371675
4887.73
5333.54
6290.6
7724.38
9670.39
12200.5
15435.2
19594.9
25131
33025.4
45408.2
66508.8
102706
157601
223011
282627
338571
385542
416064
434228
443755
447394
447190
444346
439875
434431
428464
422279
416074
410003
4860.06
5302.35
6251.93
7675.27
9607.8
12118.8
15318.4
19393.9
24704.1
32001.5
42914.3
60827.2
91717.8
141996
209469
277019
341739
402086
443761
469742
484382
491131
492608
490512
486139
480365
473796
466844
459776
452801
4833.6
5272.5
6214.82
7628.07
9547.88
12042.1
15214.3
19230.1
24384.9
31266.8
41123.8
56602
82828.9
127279
193864
273391
349298
416213
470159
505938
527494
538665
542621
541799
537771
531756
524568
516765
508707
500681
4808.31
5243.95
6179.2
7582.68
9490.36
11969.3
15118.9
19090.9
24138
30732.6
39841.2
53511.8
75915.1
114228
175830
258047
344250
424692
493916
542163
572923
590170
597750
598855
595517
589395
581583
572835
563636
554376
4784.15
5216.65
6145.03
7539.05
9435.04
11899.7
15029.9
18968.2
23939.4
30335.6
38920
51278.9
70714.1
103488
158386
238960
330192
422550
510030
575937
619822
645774
658614
662465
660327
654303
645879
636075
625549
614830
4761.07
5190.56
6112.27
7497.09
9381.8
11832.9
14945.6
18856.8
23772.7
30031.3
38251.4
49674.1
66883.2
95056
142931
219251
320883
428661
524934
609227
668724
705929
725884
733680
733479
727805
718787
707794
695709
683246
4739.03
5165.64
6080.86
7456.76
9330.55
11768.7
14865.3
18753.4
23627.3
29789
37756.9
48519.8
64098
88634.7
129857
198373
298516
415701
526306
636518
716769
769496
799572
813271
815956
811178
801720
789443
775549
761000
4717.98
5141.86
6050.77
7418.02
9281.21
11706.9
14788.4
18656.1
23496.5
29588
37380.7
47683.8
62093.1
83883
119523
179684