/*--------------------------------*- C++ -*----------------------------------*\
| =========                 |                                                 |
| \\      /  F ield         | OpenFOAM: The Open Source CFD Toolbox           |
|  \\    /   O peration     | Version:  2312                                  |
|   \\  /    A nd           | Website:  www.openfoam.com                      |
|    \\/     M anipulation  |                                                 |
\*---------------------------------------------------------------------------*/
FoamFile
{
    version     2.0;
    format      ascii;
    arch        "LSB;label=32;scalar=64";
    class       volScalarField;
    location    "constant";
    object      Dwf;
}
// * * * * * * * * * * * * * * * * * * * * * * * * * * * * * * * * * * * * * //

dimensions      [0 0 0 0 0 0 0];

internalField   nonuniform List<scalar> 
29400
(
1.01988
1.0097
1.00559
1.00123
1.00413
1.01258
1.00289
0.979658
1.00514
0.989829
1.00155
0.994788
0.999432
0.99731
0.997509
0.999907
1.01639
1.00718
1.0151
1.0225
1.01438
1.00915
1.00365
1.00966
1.00448
1.00996
1.00463
1.00929
1.00386
0.998352
1.02529
1.02666
1.04162
1.03594
1.02134
1.02906
1.02455
1.02213
1.02835
1.03298
1.03448
1.01898
1.02323
1.01645
1.02827
1.02574
1.03649
1.04263
1.03639
1.05477
1.04362
1.05143
1.04719
1.05773
1.05073
1.05508
1.05173
1.05706
1.05002
1.03309
0.951412
0.937699
0.92378
0.962431
0.952141
0.970877
0.98249
0.993329
0.997601
1.01739
1.02545
1.04448
1.05371
1.07021
1.0787
1.10664
1.11885
1.12268
1.14491
1.12602
1.14537
1.14529
1.17178
1.15822
1.18549
1.1574
1.18354
1.16461
1.19795
1.18028
0.79877
0.823733
0.756072
0.758501
0.763762
0.77925
0.787756
0.820675
0.822035
0.845005
0.851953
0.858935
0.86973
0.881954
0.891288
0.905003
0.911296
0.92006
0.927461
0.929673
0.93411
0.944155
0.95396
0.950674
0.952428
0.964458
0.963157
0.973508
0.970192
0.979327
0.865151
0.812226
0.764946
0.80406
0.805896
0.801045
0.809305
0.801736
0.807981
0.814727
0.821437
0.818988
0.855146
0.835259
0.861846
0.85526
0.862622
0.845106
0.852826
0.834443
0.84099
0.820291
0.835492
0.81214
0.818603
0.813782
0.820203
0.817652
0.827184
0.808999
0.805635
0.881571
0.823874
0.825138
0.819903
0.829788
0.84005
0.842924
0.854822
0.853343
0.865794
0.878167
0.890855
0.898164
0.902276
0.903268
0.910411
0.912297
0.920358
0.912955
0.915223
0.909998
0.917875
0.912834
0.917243
0.907368
0.912899
0.89947
0.907317
0.896339
0.794711
0.887575
0.900005
0.870398
0.88994
0.882438
0.907068
0.901311
0.919985
0.914763
0.927439
0.916639
0.93927
0.923866
0.953565
0.954853
0.96635
0.958862
0.966505
0.964301
0.967666
0.981214
0.981584
0.979129
0.965206
0.963991
0.960538
0.955063
0.953784
0.949193
0.854386
0.924697
0.908223
0.897354
0.92028
0.925562
0.924728
0.908598
0.93426
0.930082
0.932167
0.928671
0.958598
0.939365
0.966554
0.934853
0.975399
0.95047
0.980085
0.970955
0.98671
0.970825
0.987225
0.986558
1.00107
0.996079
1.00901
0.999244
1.00802
1.00502
0.972326
0.972077
1.00018
0.94949
0.925717
0.924932
0.935619
0.929354
0.931487
0.92819
0.944198
0.936988
0.950865
0.938008
0.958554
0.95246
0.970575
0.955753
0.99413
0.962358
0.988805
0.979051
0.99097
0.97756
0.993447
0.990167
0.994338
0.996115
0.999882
1.01014
0.946389
0.963533
0.960874
0.96901
0.931887
0.934634
0.9383
0.927693
0.933087
0.925106
0.935156
0.941571
0.948008
0.943637
0.955328
0.945952
0.964538
0.960639
0.971614
0.963647
0.983212
0.96418
0.987439
0.96879
0.992959
0.978762
0.985848
0.983285
0.984196
0.974381
0.960774
0.972787
0.945466
0.953348
0.920379
0.92754
0.93237
0.92183
0.937315
0.915231
0.935397
0.91612
0.941673
0.932398
0.951027
0.938139
0.946355
0.944592
0.955549
0.944564
0.962666
0.966307
0.967302
0.967044
0.974181
0.970014
0.974489
0.976118
0.977894
0.981459
0.950899
0.949483
0.954137
0.962143
0.968395
0.953932
0.939999
0.919763
0.931734
0.918386
0.929281
0.914431
0.932193
0.926827
0.937757
0.930181
0.936173
0.945676
0.943713
0.946554
0.946949
0.954648
0.956935
0.959953
0.962264
0.95914
0.963323
0.961106
0.968148
0.958034
0.953599
0.941263
0.97622
0.971165
0.94713
0.935973
0.94221
0.942264
0.940382
0.92491
0.93514
0.921919
0.926451
0.920472
0.934005
0.930454
0.936159
0.940717
0.937717
0.941894
0.93429
0.943978
0.939325
0.946123
0.948971
0.955506
0.95194
0.964357
0.957008
0.95995
0.955325
0.955335
0.967468
0.963326
0.955625
0.942057
0.95298
0.942633
0.94311
0.936873
0.940658
0.931216
0.934417
0.928835
0.936447
0.938573
0.937608
0.931088
0.935397
0.941623
0.93837
0.945984
0.942114
0.940674
0.945557
0.951952
0.95488
0.958708
0.9581
0.958039
0.945477
0.955611
0.961566
0.949991
0.940844
0.942585
0.94772
0.944222
0.943233
0.940891
0.947207
0.932011
0.930912
0.938696
0.94007
0.940766
0.941758
0.946816
0.944371
0.948615
0.946245
0.95701
0.952908
0.95914
0.957894
0.960064
0.960921
0.953064
0.967033
0.95585
0.956025
0.951534
0.959058
0.957285
0.940905
0.950161
0.953157
0.954011
0.949712
0.946573
0.943742
0.94
0.934886
0.941988
0.933232
0.934925
0.931967
0.942883
0.938011
0.94579
0.943172
0.946039
0.945955
0.951938
0.954269
0.951743
0.964486
0.962181
0.968044
0.961445
0.952542
0.941658
0.953394
0.955878
0.945911
0.955791
0.953556
0.960675
0.960429
0.952757
0.955802
0.938508
0.947715
0.945912
0.932451
0.943938
0.930404
0.942888
0.931075
0.943206
0.939563
0.939897
0.94028
0.942377
0.95025
0.951492
0.957128
0.956554
0.962825
0.950543
0.952836
0.935379
0.939881
0.949702
0.953602
0.95994
0.956197
0.965791
0.963297
0.96491
0.963173
0.955318
0.954623
0.950842
0.944465
0.94224
0.933755
0.932219
0.925127
0.931968
0.932549
0.945098
0.931631
0.942466
0.935634
0.94785
0.947453
0.952003
0.949106
0.953383
0.950349
0.93877
0.933232
0.95736
0.952668
0.963652
0.966233
0.97518
0.969533
0.973188
0.972255
0.969612
0.964815
0.953717
0.94703
0.941702
0.940436
0.930921
0.930154
0.936196
0.928068
0.936818
0.932373
0.936592
0.932914
0.935239
0.935958
0.939377
0.936552
0.938612
0.955388
0.910152
0.923121
0.946391
0.950608
0.959052
0.966911
0.981481
0.973746
0.984534
0.98067
0.982068
0.970649
0.967514
0.957335
0.949325
0.949798
0.94824
0.939541
0.936502
0.938106
0.942178
0.935757
0.943831
0.929959
0.946599
0.937535
0.945771
0.936932
0.94787
0.955033
0.909666
0.916292
0.977475
0.951132
0.96384
0.980583
0.988298
0.978387
0.997136
0.987075
0.993822
0.980265
0.976526
0.975449
0.963831
0.961292
0.955155
0.952362
0.952454
0.946899
0.945532
0.940593
0.947428
0.942489
0.949176
0.945137
0.947096
0.946814
0.956283
0.959111
0.89371
0.886184
0.921254
0.944654
0.968059
0.987113
0.999598
0.994984
1.00508
0.995111
1.00408
0.988311
0.989321
0.982193
0.976462
0.975991
0.959683
0.96011
0.958608
0.95634
0.955883
0.948884
0.951251
0.950081
0.952372
0.953112
0.959269
0.953019
0.958596
0.941787
0.87628
0.863429
0.925151
0.940753
0.982138
0.988389
1.01399
1.00663
1.01512
1.00048
1.01069
0.992499
0.996382
0.99166
0.988921
0.98462
0.972115
0.977093
0.970462
0.975926
0.977531
0.974632
0.976344
0.970683
0.976541
0.972402
0.972867
0.971907
0.97784
0.934519
0.864262
0.853784
0.918723
0.933727
0.969336
0.984447
1.01853
1.01341
1.0229
1.01481
1.01779
1.00075
1.00846
1.00154
0.998457
0.991725
0.990343
0.988438
0.983161
0.984414
0.984934
0.98404
0.992557
0.988906
0.995395
0.990239
0.992529
0.988585
0.992276
0.921287
0.853707
0.841289
0.901521
0.92552
0.963877
0.987459
1.01759
1.01985
1.02665
1.02008
1.03057
1.02285
1.01112
1.00725
1.0089
0.993414
1.00156
0.993537
0.996136
0.998143
0.99906
1.00592
1.00661
1.00359
1.00667
1.0023
1.00695
1.00247
1.00225
0.917006
0.845748
0.830005
0.894708
0.925865
0.960973
0.989201
1.01283
1.02881
1.03541
1.02612
1.036
1.03076
1.02475
1.01422
1.01611
1.00695
1.00599
0.997435
1.00648
0.999115
0.978941
1.02122
1.02463
1.02514
1.02412
1.02257
1.0235
1.0296
1.03821
0.90259
0.840335
0.823906
0.872067
0.91684
0.954527
0.980704
1.02484
1.02601
1.04409
1.03273
1.04147
1.03704
1.03652
1.02846
1.02192
1.01476
1.0108
1.02653
1.01912
1.02697
1.01701
1.02335
0.984068
0.997965
1.01586
1.02391
1.03323
1.02603
1.03172
0.894098
0.833101
0.822407
0.84683
0.906092
0.950419
0.984572
1.01633
1.02955
1.04886
1.04747
1.04652
1.04694
1.04994
1.03394
1.02545
1.03608
1.02919
1.01604
1.01997
1.00912
1.01763
1.0129
1.02818
1.02581
1.03389
1.0277
1.03938
1.03051
1.0441
0.885132
0.812366
0.816684
0.835981
0.89176
0.949446
0.981442
1.01018
1.01994
1.04411
1.05587
1.05725
1.05564
1.03765
1.03379
1.02583
1.034
1.0369
1.02299
1.03472
1.02138
1.02699
1.01962
1.02908
1.01967
1.03252
1.02167
1.03495
1.02594
1.04377
0.884851
0.79806
0.882601
0.828435
0.880277
0.940296
0.978011
0.997119
1.02471
1.04839
1.06035
1.06508
1.05736
1.02776
1.05806
1.05555
1.0491
1.04497
1.04441
1.04678
1.02811
1.03858
1.02291
1.02805
1.02233
1.03189
1.02057
1.03682
1.02241
1.03328
0.880742
0.783473
0.806693
0.816543
0.866594
0.926596
0.967897
0.993539
1.02391
1.05629
1.05913
1.06501
1.03522
1.07095
1.06828
1.06909
1.05338
1.05665
1.04771
1.05302
1.03753
1.04303
1.03141
1.04083
1.02798
1.03397
1.02491
1.03673
1.02605
1.04578
0.869041
0.77535
0.791549
0.807579
0.841183
0.91983
0.961964
1.00672
1.02086
1.05061
1.06068
1.0698
1.07841
1.08275
1.07249
1.07371
1.05894
1.06052
1.0515
1.05396
1.04731
1.05635
1.03895
1.04866
1.03637
1.04615
1.033
1.04699
1.03751
1.05294
0.858826
0.779678
0.784208
0.804314
0.825911
0.909433
0.956664
1.00625
1.02673
1.06023
1.07053
1.04007
1.07899
1.08465
1.08
1.07258
1.06906
1.07012
1.05605
1.05752
1.05415
1.06214
1.04388
1.0577
1.04296
1.05945
1.04441
1.0563
1.04244
1.054
0.852739
0.770981
0.77341
0.802674
0.812844
0.894056
0.94146
1.0099
1.03313
1.06078
1.06444
1.06433
1.08345
1.08747
1.08559
1.08591
1.07685
1.0823
1.05629
1.06594
1.05738
1.06832
1.05206
1.06648
1.04876
1.06611
1.05028
1.06365
1.05257
1.06341
0.851772
0.762269
0.769186
0.790749
0.819966
0.881751
0.942413
1.0021
1.03431
1.06055
1.06985
1.0839
1.0876
1.09263
1.08543
1.09014
1.08783
1.09071
1.07212
1.0791
1.0657
1.07098
1.06346
1.07086
1.06075
1.07157
1.05827
1.07096
1.06052
1.06938
0.850368
0.754016
0.767281
0.791338
0.832896
0.888905
0.940827
0.996567
1.03651
1.05453
1.07457
1.09179
1.0855
1.10105
1.09607
1.10299
1.0904
1.0999
1.08652
1.09252
1.07049
1.08493
1.06941
1.08252
1.06688
1.0788
1.07148
1.07939
1.06991
1.08824
0.847232
0.751608
0.757569
0.791377
0.8363
0.874724
0.936501
1.00137
1.04168
1.05556
1.0773
1.09572
1.09636
1.10545
1.10277
1.11049
1.09668
1.10396
1.09435
1.09695
1.07718
1.09441
1.07937
1.08608
1.07611
1.0832
1.07411
1.07838
1.07601
1.09054
0.842103
0.748751
0.749778
0.794421
0.838599
0.86832
0.93452
1.00372
1.04022
1.06475
1.07672
1.09646
1.10205
1.11518
1.1052
1.11568
1.10423
1.10806
1.09929
1.09948
1.08536
1.09949
1.08308
1.09585
1.08021
1.09237
1.08453
1.09109
1.08812
1.09548
0.844847
0.747646
0.744532
0.795474
0.829332
0.871119
0.922249
0.981167
1.04173
1.06233
1.0775
1.09585
1.11097
1.11629
1.1096
1.11855
1.10932
1.11821
1.10586
1.11356
1.09529
1.10853
1.09537
1.1089
1.09353
1.10496
1.09668
1.10791
1.1064
1.11961
0.833657
0.743991
0.7388
0.79792
0.843679
0.873298
0.910254
0.97015
1.03687
1.07536
1.09742
1.10753
1.12052
1.12783
1.13293
1.13858
1.12607
1.14226
1.1134
1.12131
1.10955
1.11855
1.12046
1.13552
1.12098
1.12745
1.11985
1.12906
1.12034
1.13045
0.831847
0.740648
0.73611
0.79946
0.846167
0.879158
0.918261
1.00412
1.04512
1.09198
1.12043
1.13807
1.13845
1.15035
1.15091
1.16103
1.1519
1.16202
1.14264
1.15176
1.13282
1.14513
1.13002
1.13652
1.13053
1.13673
1.12735
1.1409
1.12906
1.13865
0.827169
0.754972
0.741351
0.803613
0.834246
0.897439
0.946118
0.999774
1.04807
1.08269
1.13063
1.13213
1.14824
1.15824
1.15815
1.16096
1.15877
1.15629
1.14501
1.1544
1.14391
1.15708
1.14123
1.15064
1.13592
1.15045
1.13055
1.14766
1.12855
1.14728
0.822091
0.75414
0.749974
0.796862
0.841149
0.930106
0.954789
1.00277
1.04113
1.08531
1.11548
1.1332
1.1471
1.16262
1.15949
1.16389
1.15974
1.15713
1.153
1.15784
1.15491
1.15678
1.14968
1.1621
1.14799
1.16283
1.13775
1.15347
1.13125
1.15352
0.8208
0.742712
0.750912
0.786778
0.888436
0.92191
0.956463
0.996936
1.05209
1.08269
1.11585
1.12047
1.14339
1.15642
1.16456
1.17376
1.16813
1.16539
1.15798
1.16092
1.15823
1.16527
1.15307
1.15875
1.14928
1.1591
1.14506
1.15766
1.13776
1.15711
0.811027
0.744646
0.75386
0.788871
0.886671
0.932664
0.970166
0.997082
1.04379
1.09037
1.11787
1.13159
1.1466
1.1558
1.15965
1.15611
1.16779
1.1704
1.16661
1.17234
1.16299
1.17019
1.16514
1.1667
1.15516
1.15783
1.15185
1.15504
1.14639
1.15587
0.80799
0.736494
0.742812
0.824318
0.878633
0.954519
0.97869
1.00455
1.04263
1.08346
1.12243
1.13609
1.14976
1.15983
1.16869
1.16203
1.17039
1.16216
1.16899
1.17196
1.17116
1.17073
1.17106
1.17413
1.16984
1.17167
1.15784
1.1631
1.14591
1.1651
0.80149
0.730784
0.743202
0.834075
0.908021
0.954579
0.990276
1.01226
1.04619
1.08143
1.12102
1.14217
1.15245
1.15297
1.17224
1.17219
1.17316
1.16632
1.17137
1.16799
1.17485
1.17185
1.17048
1.17279
1.16814
1.17013
1.16017
1.16824
1.15068
1.16863
0.797468
0.731629
0.741904
0.833602
0.901854
0.963662
0.995601
1.0267
1.04896
1.08526
1.12008
1.13757
1.14215
1.1556
1.17208
1.1676
1.18239
1.17125
1.17937
1.1753
1.1784
1.1712
1.17529
1.17535
1.17232
1.17784
1.1698
1.17647
1.16373
1.17634
0.791132
0.726068
0.75581
0.839133
0.904107
0.958898
1.00815
1.04632
1.0606
1.0906
1.12999
1.14218
1.16606
1.15526
1.18436
1.17921
1.1883
1.17242
1.18628
1.17689
1.19198
1.1808
1.18609
1.18169
1.18377
1.18247
1.17643
1.1772
1.17452
1.17962
0.792224
0.73932
0.949337
0.857335
0.898012
0.966325
1.01874
1.04846
1.06702
1.09268
1.13072
1.14364
1.16953
1.18455
1.19366
1.18424
1.19597
1.18463
1.19817
1.18411
1.19858
1.18742
1.19318
1.18931
1.18603
1.18568
1.18815
1.18177
1.18181
1.17658
0.8111
0.727654
1.00314
0.866263
0.903081
0.968549
1.00649
1.0651
1.07026
1.10746
1.12171
1.14211
1.17523
1.17498
1.19559
1.19442
1.19832
1.19529
1.20514
1.19764
1.21309
1.20077
1.20221
1.19944
1.19519
1.19021
1.18821
1.1897
1.18688
1.18661
0.816284
0.747309
0.759344
0.867161
0.927657
0.977935
1.00997
1.0802
1.07728
1.12111
1.12585
1.16535
1.17432
1.17951
1.20505
1.19304
1.21298
1.19779
1.20727
1.20779
1.21487
1.20893
1.21234
1.20619
1.20561
1.19756
1.1995
1.19873
1.19615
1.19431
0.811916
0.773487
0.76724
0.872913
0.929594
0.987708
1.00676
1.09467
1.0931
1.12871
1.13476
1.15769
1.18741
1.20075
1.21999
1.20901
1.2175
1.21163
1.22316
1.21176
1.21312
1.21599
1.21297
1.21315
1.21329
1.20893
1.21083
1.21225
1.21067
1.20948
0.827456
0.764509
0.756885
0.867555
0.931959
0.982607
1.01662
1.09517
1.11056
1.13832
1.14876
1.17916
1.18132
1.20166
1.22032
1.24761
1.2342
1.23539
1.23974
1.24042
1.22957
1.23026
1.22621
1.22545
1.22587
1.2217
1.22079
1.22493
1.22323
1.22514
0.857735
0.744992
0.756676
0.872679
0.941895
1.00109
1.01391
1.101
1.11179
1.15176
1.15749
1.19567
1.19539
1.21089
1.22293
1.26969
1.25161
1.25676
1.25585
1.26622
1.24793
1.25743
1.24053
1.23612
1.24077
1.23324
1.24022
1.23537
1.24431
1.23664
0.8411
0.74477
0.752646
0.993861
0.93944
1.00248
1.02462
1.10394
1.11499
1.15243
1.15417
1.19155
1.18569
1.21793
1.22987
1.24889
1.27046
1.25722
1.26306
1.275
1.26135
1.27423
1.26461
1.24927
1.26109
1.24915
1.24507
1.24795
1.22344
1.24732
0.848129
0.736223
0.730476
0.893497
0.937192
1.00101
1.02127
1.09352
1.11754
1.16015
1.16199
1.18761
1.18834
1.21608
1.23527
1.2505
1.25521
1.27033
1.27372
1.27899
1.272
1.28038
1.2763
1.26966
1.27041
1.27126
1.25801
1.24781
1.265
1.25673
0.84645
0.749379
0.714539
0.816203
0.939197
1.00338
1.03746
1.09808
1.14046
1.16825
1.18545
1.20185
1.21237
1.23167
1.24546
1.26304
1.26447
1.27531
1.28614
1.28525
1.28667
1.28767
1.29003
1.27779
1.26623
1.26892
1.27025
1.27981
1.27031
1.26951
0.831324
0.731041
0.722058
0.80067
1.06643
0.997396
1.04024
1.10413
1.14616
1.17134
1.19001
1.20809
1.21741
1.24038
1.26247
1.26258
1.27891
1.28316
1.29017
1.29629
1.31036
1.30094
1.30622
1.31089
1.27581
1.29197
1.28377
1.28911
1.28306
1.28689
0.856232
0.732002
0.710216
0.793765
1.00594
0.988727
1.0422
1.09111
1.14393
1.17425
1.19899
1.21938
1.2445
1.25746
1.26591
1.2626
1.28196
1.27367
1.2856
1.28848
1.29146
1.29581
1.30433
1.29678
1.29544
1.30641
1.29177
1.30766
1.28879
1.29305
0.841361
0.694666
0.688572
0.777484
0.919983
1.00473
1.06407
1.1121
1.17062
1.18578
1.21018
1.21558
1.24447
1.25268
1.28082
1.27282
1.28221
1.28858
1.29809
1.30157
1.3082
1.31612
1.29665
1.30804
1.3025
1.31852
1.30348
1.29546
1.29589
1.28637
0.820123
0.674992
0.689196
0.749094
0.925701
1.0844
1.13676
1.15547
1.21811
1.20254
1.21742
1.22496
1.24728
1.26316
1.27558
1.28356
1.30201
1.30086
1.31032
1.30586
1.32099
1.32149
1.30196
1.31822
1.28939
1.30854
1.29548
1.30448
1.29119
1.30263
0.789738
0.703675
0.673623
0.740927
0.922416
1.08928
1.12877
1.15131
1.20846
1.21074
1.24515
1.22965
1.25103
1.24328
1.27058
1.26267
1.29242
1.30446
1.31765
1.31068
1.32128
1.32414
1.3094
1.31562
1.30179
1.31267
1.29521
1.30695
1.29375
1.3073
0.76085
0.696601
0.666212
0.731926
0.934411
1.03261
1.15604
1.16613
1.20472
1.20715
1.24047
1.22949
1.25717
1.24022
1.26535
1.25707
1.28453
1.29754
1.31795
1.30986
1.31583
1.30644
1.32531
1.31224
1.3094
1.31135
1.30175
1.30947
1.29513
1.31154
0.748011
0.692219
0.679695
0.730322
0.947143
1.04177
1.18882
1.17002
1.21378
1.20516
1.2308
1.23364
1.25629
1.23716
1.26173
1.25868
1.28597
1.27631
1.30786
1.3056
1.30339
1.29552
1.31319
1.3075
1.29829
1.30374
1.29347
1.30655
1.29503
1.30927
0.735826
0.67943
0.68447
0.729303
0.947565
1.04178
1.15844
1.20001
1.2124
1.21579
1.23916
1.22113
1.25139
1.23822
1.25979
1.25711
1.27684
1.27813
1.30952
1.28684
1.31272
1.27675
1.32093
1.29982
1.2998
1.28946
1.29274
1.29206
1.29153
1.29094
0.729973
0.677777
0.704908
0.76909
0.944085
1.04382
1.1494
1.15572
1.24085
1.2274
1.24928
1.23375
1.24979
1.24674
1.25609
1.26531
1.26601
1.26863
1.2836
1.28016
1.28149
1.2799
1.29671
1.29032
1.28744
1.29138
1.28318
1.28228
1.2736
1.27313
0.720263
0.644966
0.706889
0.764904
0.937461
1.02644
1.15535
1.18874
1.24477
1.23471
1.25053
1.2357
1.24854
1.23909
1.25782
1.26913
1.26317
1.27542
1.27359
1.29367
1.27851
1.29765
1.2927
1.28612
1.28509
1.2787
1.27376
1.27268
1.27373
1.26998
0.687587
0.648839
0.705638
0.754323
0.923234
1.03052
1.15073
1.17785
1.21923
1.23617
1.26066
1.23964
1.26257
1.2457
1.26517
1.25613
1.27884
1.27504
1.27611
1.2881
1.27472
1.29228
1.27973
1.28431
1.27714
1.27448
1.26942
1.27082
1.26592
1.26826
0.682022
0.65905
0.686857
0.755273
0.905688
1.02156
1.13153
1.15497
1.22678
1.1946
1.25678
1.25073
1.26909
1.25232
1.28102
1.25527
1.28846
1.28448
1.29258
1.29508
1.27936
1.2856
1.28561
1.27798
1.27974
1.28271
1.2764
1.27968
1.27335
1.27953
0.672371
0.659053
0.699107
0.746247
0.900467
1.0205
1.10443
1.14862
1.19422
1.20219
1.24732
1.21989
1.25757
1.24164
1.26757
1.25698
1.283
1.28224
1.30056
1.30152
1.27864
1.28312
1.28924
1.27711
1.28757
1.27598
1.28179
1.26841
1.27334
1.27454
0.685778
0.66346
0.678306
0.745409
0.887341
0.991405
1.09627
1.17323
1.18747
1.20624
1.24106
1.24242
1.23404
1.21331
1.24655
1.24313
1.25974
1.26757
1.26569
1.2828
1.26284
1.26229
1.2837
1.2704
1.28078
1.2697
1.27774
1.26824
1.27107
1.26721
0.691492
0.692504
0.689476
0.719381
0.880451
0.964039
1.08199
1.16483
1.16385
1.21466
1.22926
1.23426
1.24542
1.24892
1.26111
1.22188
1.23953
1.24103
1.24741
1.25824
1.25112
1.25746
1.27329
1.25749
1.27486
1.24682
1.25439
1.25016
1.26186
1.24693
0.70205
0.700818
0.690074
0.694269
0.85917
0.968029
1.07532
1.16343
1.16274
1.20799
1.1932
1.2103
1.20467
1.2266
1.23832
1.24731
1.26642
1.25457
1.26238
1.26328
1.24568
1.23195
1.25962
1.20343
1.24507
1.21559
1.23276
1.21476
1.24057
1.23264
0.714811
0.711058
0.687002
0.693438
0.854756
0.956216
1.04909
1.14887
1.15847
1.20219
1.19871
1.22103
1.19707
1.21332
1.20752
1.23028
1.23886
1.21827
1.24657
1.24262
1.24892
1.20131
1.26399
1.22368
1.26183
1.22227
1.24832
1.2152
1.23288
1.21379
0.698074
0.721769
0.690673
0.698635
0.834771
0.933388
1.01722
1.13499
1.13894
1.19396
1.19764
1.21855
1.20739
1.2246
1.21514
1.21816
1.22681
1.23624
1.24682
1.21626
1.25403
1.2287
1.26897
1.2252
1.26043
1.22406
1.25687
1.22895
1.25351
1.2542
0.699353
0.727678
0.688726
0.68721
0.812988
0.919096
0.984352
1.11515
1.10146
1.18738
1.16193
1.21728
1.19723
1.21501
1.20791
1.23075
1.2405
1.2383
1.25319
1.2288
1.26543
1.23324
1.26547
1.24593
1.26387
1.24383
1.24847
1.24804
1.25096
1.24747
0.699347
0.714732
0.705743
0.687668
0.81213
0.913343
0.978041
1.11245
1.09202
1.174
1.13455
1.20633
1.17636
1.20656
1.18597
1.22082
1.23608
1.24101
1.24351
1.23215
1.25598
1.23402
1.26163
1.24437
1.26794
1.24417
1.26885
1.23863
1.26677
1.23749
0.704149
0.731528
0.701196
0.686291
0.79367
0.902163
0.961821
1.08087
1.0802
1.16449
1.11859
1.189
1.14548
1.21491
1.18323
1.22581
1.22307
1.22742
1.24547
1.24021
1.2605
1.25065
1.26502
1.24093
1.26568
1.23722
1.25789
1.2474
1.25927
1.25859
0.728825
0.742274
0.713063
0.680367
0.781458
0.894763
0.948409
1.06978
1.07192
1.15564
1.119
1.19174
1.14326
1.20815
1.19113
1.23025
1.21969
1.21523
1.24107
1.23694
1.26243
1.25015
1.26065
1.24707
1.26297
1.2431
1.25682
1.2519
1.25738
1.26039
0.746961
0.7504
0.719605
0.664509
0.773705
0.889399
0.944392
1.04821
1.05913
1.15272
1.11012
1.18749
1.13253
1.19835
1.17911
1.22026
1.20523
1.16742
1.22552
1.19606
1.24106
1.22821
1.23109
1.21514
1.25866
1.24775
1.25411
1.24969
1.25444
1.26232
0.77417
0.752637
0.720473
0.667907
0.747672
0.871758
0.935067
1.03378
1.05599
1.13814
1.10793
1.18479
1.15124
1.12717
1.19504
1.16706
1.21743
1.18187
1.23383
1.21
1.23677
1.23279
1.24926
1.21469
1.23142
1.21776
1.23904
1.20993
1.24011
1.21161
0.791841
0.77548
0.725616
0.67772
0.734204
0.84913
0.930867
1.01757
1.05457
1.12776
1.11236
1.10226
1.16141
1.14102
1.19751
1.17555
1.21834
1.18967
1.2296
1.22288
1.23868
1.24128
1.23903
1.22823
1.22626
1.22332
1.23704
1.21744
1.24026
1.21306
0.810169
0.803722
0.718192
0.68436
0.719601
0.828867
0.924606
0.999805
1.0471
1.1047
1.14362
1.11438
1.17615
1.14936
1.19297
1.20428
1.22006
1.2198
1.22792
1.23258
1.23897
1.23995
1.24462
1.23138
1.23344
1.23193
1.23568
1.22733
1.23947
1.22336
0.868348
0.82193
0.730291
0.706221
0.694571
0.810415
0.912158
0.970804
1.04872
1.06098
1.13111
1.12615
1.1702
1.16571
1.1959
1.21387
1.21975
1.22806
1.22713
1.24008
1.23945
1.24138
1.24554
1.23787
1.23584
1.23724
1.23806
1.2295
1.23062
1.23115
0.884161
0.835099
0.73229
0.726583
0.679149
0.796237
0.900446
0.968103
1.03049
1.04211
1.12431
1.14228
1.17923
1.18263
1.19831
1.2155
1.21187
1.2587
1.23006
1.24934
1.24165
1.24353
1.24008
1.2433
1.23758
1.23698
1.2368
1.23853
1.23143
1.23359
0.883673
0.844105
0.74309
0.738903
0.661573
0.774507
0.881096
0.927792
1.02245
1.04558
1.10654
1.13606
1.1716
1.18004
1.19678
1.21993
1.21281
1.26148
1.22711
1.25658
1.237
1.24523
1.23926
1.24847
1.23809
1.24674
1.23884
1.24358
1.23416
1.23579
0.887625
0.858572
0.724797
0.736261
0.646973
0.757481
0.868354
0.9294
1.01265
1.05047
1.10565
1.13386
1.1687
1.1816
1.19795
1.21984
1.21557
1.25885
1.22932
1.25645
1.23749
1.25081
1.24371
1.23962
1.24328
1.25255
1.24331
1.24476
1.23861
1.24635
0.89908
0.871612
0.738421
0.733539
0.647114
0.723132
0.837216
0.90347
1.00849
1.04621
1.09823
1.12062
1.16212
1.18779
1.19877
1.21968
1.21666
1.26433
1.23361
1.26744
1.24021
1.25304
1.24073
1.24575
1.24135
1.25061
1.2466
1.24847
1.24138
1.24449
0.921928
0.880869
0.750599
0.741847
0.665703
0.697625
0.806639
0.9037
0.995374
1.03295
1.10367
1.11289
1.15739
1.18839
1.19722
1.21839
1.22021
1.26208
1.23182
1.27375
1.23877
1.25248
1.23614
1.24187
1.23991
1.24841
1.244
1.24546
1.23945
1.24232
0.938002
0.899401
0.7779
0.744011
0.67857
0.685239
0.783607
0.89384
0.968792
1.02475
1.10256
1.1134
1.16334
1.18412
1.19724
1.21069
1.22108
1.26533
1.23366
1.2824
1.23517
1.24948
1.23801
1.23814
1.23778
1.24707
1.2419
1.24308
1.23789
1.24144
0.958489
0.898195
0.801083
0.738151
0.694721
0.66825
0.749249
0.867653
0.960373
1.00855
1.09904
1.10988
1.16207
1.18016
1.19702
1.20684
1.21686
1.25629
1.22831
1.29138
1.23221
1.24786
1.23571
1.23951
1.23778
1.24242
1.23861
1.23747
1.23699
1.23932
0.969335
0.924629
0.827805
0.754705
0.713684
0.657495
0.717763
0.835807
0.93098
0.986954
1.08206
1.09863
1.1541
1.17679
1.19289
1.20528
1.21349
1.24672
1.227
1.3007
1.23075
1.24446
1.23312
1.23426
1.23085
1.24125
1.23629
1.23935
1.23512
1.2364
0.976509
0.931572
0.85889
0.777072
0.711772
0.67009
0.691633
0.798245
0.912702
0.971574
1.0617
1.08545
1.14355
1.16742
1.188
1.20083
1.21093
1.24078
1.22508
1.31031
1.23027
1.24371
1.23033
1.23506
1.22866
1.23851
1.23428
1.23748
1.23307
1.23483
0.97756
0.942681
0.892119
0.803701
0.725643
0.672125
0.675409
0.782942
0.90443
0.946916
1.04007
1.06562
1.13751
1.15999
1.18179
1.1984
1.20822
1.2403
1.22218
1.31246
1.22863
1.24345
1.22836
1.23921
1.22895
1.23684
1.22971
1.23618
1.23134
1.2332
0.991492
0.956821
0.91543
0.819775
0.745581
0.692226
0.667131
0.764654
0.885651
0.932657
1.01887
1.05384
1.12377
1.14653
1.17748
1.1921
1.20406
1.23433
1.21833
1.30874
1.22514
1.24643
1.22539
1.23497
1.22741
1.23415
1.22883
1.2343
1.22875
1.22858
0.991552
0.971494
0.939526
0.863558
0.764368
0.734601
0.666958
0.729863
0.841088
0.916851
0.992428
1.03533
1.11102
1.143
1.17
1.18595
1.19831
1.22433
1.21457
1.29352
1.22141
1.24226
1.22177
1.23394
1.22408
1.2342
1.22764
1.231
1.22797
1.22685
0.990031
0.961719
0.941748
0.889126
0.800652
0.737905
0.672889
0.704299
0.811588
0.893814
0.962873
1.00302
1.09155
1.10089
1.14944
1.17078
1.18278
1.21067
1.20809
1.28729
1.21807
1.24166
1.22167
1.23075
1.225
1.22715
1.22434
1.22893
1.2252
1.22259
0.990748
0.973716
0.957001
0.937527
0.841231
0.762964
0.688622
0.678499
0.768357
0.876303
0.941859
0.975326
1.05812
1.09153
1.14057
1.15823
1.18376
1.19721
1.20827
1.25497
1.21949
1.24276
1.22191
1.23086
1.22038
1.22086
1.21957
1.22305
1.21861
1.22038
0.954639
0.96133
0.91796
0.901683
0.85625
0.792616
0.709847
0.675166
0.725879
0.830784
0.92646
0.987973
1.05308
1.09947
1.13592
1.1605
1.17726
1.19179
1.19824
1.23457
1.20943
1.2391
1.21446
1.22583
1.21781
1.21783
1.21201
1.22027
1.21759
1.22029
0.957693
0.969972
0.918182
0.92566
0.88806
0.839028
0.75927
0.708506
0.716501
0.788682
0.89431
0.94844
1.0192
1.07974
1.11401
1.15298
1.16423
1.18424
1.19007
1.22238
1.20654
1.25037
1.21063
1.22638
1.21252
1.21172
1.2115
1.21579
1.21451
1.21744
0.933504
0.972296
0.936197
0.929479
0.899523
0.877396
0.798821
0.73798
0.704728
0.750865
0.848893
0.92773
0.984862
1.04859
1.09443
1.13813
1.15511
1.17458
1.18395
1.20769
1.20366
1.26782
1.20694
1.22053
1.21056
1.21688
1.21048
1.21495
1.21311
1.21511
0.936346
0.967525
0.94667
0.930697
0.909673
0.898601
0.841414
0.777123
0.724594
0.737264
0.8105
0.899569
0.959682
1.01971
1.07414
1.11959
1.14431
1.1634
1.17838
1.19632
1.20006
1.27183
1.20514
1.21257
1.21202
1.21334
1.20793
1.20737
1.20986
1.2122
0.930351
0.968964
0.945305
0.934034
0.917772
0.911935
0.872681
0.808834
0.752636
0.731593
0.768048
0.858578
0.930966
0.988717
1.05607
1.09809
1.12867
1.15297
1.1702
1.18685
1.19177
1.27783
1.20324
1.20778
1.20781
1.20859
1.20101
1.19685
1.20807
1.20731
0.929758
0.963869
0.939492
0.951058
0.920949
0.923221
0.891523
0.836117
0.783141
0.744456
0.750863
0.8299
0.906108
0.963958
1.01896
1.07101
1.11408
1.14309
1.16252
1.17706
1.18629
1.27629
1.19966
1.20799
1.20247
1.20753
1.20734
1.20596
1.20468
1.20439
0.933063
0.961202
0.928624
0.953716
0.925938
0.932283
0.910516
0.86633
0.811754
0.760955
0.748191
0.789201
0.8747
0.938702
0.993323
1.05046
1.09676
1.1318
1.14991
1.16949
1.18085
1.23662
1.20289
1.20202
1.19969
1.20306
1.20244
1.20438
1.20245
1.20254
0.928376
0.961093
0.925394
0.947624
0.932616
0.936033
0.916927
0.902416
0.842998
0.787193
0.757364
0.767678
0.842573
0.914485
0.970281
1.02493
1.0781
1.11907
1.14148
1.16151
1.17641
1.20423
1.20868
1.20037
1.19879
1.1992
1.19998
1.20118
1.20067
1.19787
0.934021
0.956107
0.924477
0.934871
0.936095
0.933319
0.92721
0.912371
0.879956
0.813304
0.771079
0.759286
0.809807
0.892403
0.949438
1.00452
1.0551
1.10236
1.13029
1.15203
1.16898
1.1923
1.19757
1.20211
1.19486
1.1961
1.19754
1.19863
1.19551
1.19398
0.935915
0.952083
0.924457
0.934679
0.931543
0.938064
0.928265
0.921853
0.900489
0.849189
0.797404
0.775447
0.787932
0.85981
0.928504
0.977117
1.03199
1.08059
1.1139
1.14173
1.1596
1.18258
1.19325
1.19895
1.19344
1.19404
1.19236
1.19472
1.19514
1.19024
0.947329
0.945606
0.925965
0.936529
0.931014
0.939075
0.929214
0.928236
0.913097
0.883427
0.826255
0.78264
0.779801
0.826223
0.907556
0.95714
1.00683
1.06013
1.10579
1.13331
1.15037
1.17323
1.20202
1.20252
1.19102
1.18871
1.19206
1.19199
1.19274
1.19366
0.950684
0.942981
0.927204
0.933071
0.929885
0.933568
0.929137
0.931834
0.917392
0.900448
0.860569
0.812595
0.784945
0.807196
0.877501
0.942333
0.982749
1.0417
1.08182
1.1199
1.14158
1.16379
1.19839
1.21495
1.18625
1.18423
1.19035
1.19018
1.19122
1.19352
0.944181
0.944468
0.925871
0.931506
0.92718
0.933407
0.932767
0.934581
0.926022
0.913561
0.885611
0.839243
0.79763
0.793204
0.84158
0.91711
0.962226
1.01883
1.06499
1.10549
1.13125
1.15858
1.17963
1.2171
1.18529
1.18423
1.18676
1.18485
1.1899
1.18672
0.947714
0.936962
0.925647
0.927811
0.927637
0.929546
0.931674
0.933039
0.929412
0.923768
0.904966
0.861915
0.817883
0.800543
0.81797
0.888413
0.947203
1.00181
1.04886
1.09147
1.12036
1.14661
1.16841
1.21133
1.18109
1.18022
1.18293
1.1822
1.18595
1.18451
0.948827
0.934664
0.925316
0.927561
0.926393
0.928738
0.9306
0.932174
0.93114
0.93238
0.914763
0.880726
0.83967
0.810731
0.810954
0.866883
0.927772
0.977447
1.02756
1.07148
1.10675
1.12927
1.15806
1.20739
1.17545
1.1777
1.17914
1.18294
1.18305
1.18104
0.951645
0.929446
0.924786
0.928823
0.925889
0.931538
0.93057
0.935395
0.934463
0.936474
0.928246
0.898908
0.861925
0.818816
0.811169
0.842292
0.908827
0.96232
1.00418
1.05317
1.09045
1.12044
1.14218
1.17074
1.17396
1.16873
1.17514
1.17924
1.18009
1.17502
0.949637
0.928157
0.926271
0.927445
0.925407
0.932175
0.928885
0.935317
0.938989
0.955248
0.94462
0.905182
0.879793
0.839775
0.816104
0.834014
0.905143
0.950877
0.987444
1.03313
1.07918
1.11017
1.1397
1.16261
1.20536
1.17074
1.1747
1.16494
1.1658
1.16607
0.951452
0.929657
0.9232
0.92454
0.923572
0.931412
0.92904
0.933439
0.939605
0.979159
0.980369
0.9379
0.932994
0.852416
0.828991
0.823257
0.885056
0.923696
0.964364
1.00206
1.08403
1.11814
1.17144
1.17777
1.20934
1.19292
1.19234
1.16313
1.16266
1.16076