/*--------------------------------*- C++ -*----------------------------------*\
| =========                 |                                                 |
| \\      /  F ield         | OpenFOAM: The Open Source CFD Toolbox           |
|  \\    /   O peration     | Version:  2312                                  |
|   \\  /    A nd           | Website:  www.openfoam.com                      |
|    \\/     M anipulation  |                                                 |
\*---------------------------------------------------------------------------*/
FoamFile
{
    version     2.0;
    format      ascii;
    arch        "LSB;label=32;scalar=64";
    class       volScalarField;
    location    "20000";
    object      k;
}
// * * * * * * * * * * * * * * * * * * * * * * * * * * * * * * * * * * * * * //

dimensions      [0 2 -2 0 0 0 0];

internalField   nonuniform List<scalar> 
29400
(
0.00773696
0.0143597
0.0247431
0.0364319
0.0485481
0.0596763
0.0694564
0.0778005
0.084804
0.0906425
0.0954972
0.099535
0.102901
0.105718
0.108086
0.110087
0.111787
0.11324
0.114488
0.115564
0.116495
0.117304
0.11801
0.118627
0.11917
0.119647
0.120069
0.120445
0.120777
0.121069
0.109642
0.100484
0.103729
0.11281
0.121619
0.129391
0.136221
0.142428
0.148252
0.153823
0.1592
0.164407
0.169449
0.174319
0.179006
0.183498
0.187784
0.191854
0.1957
0.199319
0.20271
0.205876
0.208824
0.21156
0.214095
0.216439
0.218604
0.220605
0.222441
0.224156
0.433224
0.407204
0.422035
0.449667
0.473892
0.493624
0.510264
0.525233
0.539413
0.553244
0.566904
0.580433
0.593796
0.606923
0.619733
0.632142
0.644078
0.655482
0.666308
0.676527
0.686125
0.695101
0.703467
0.711239
0.718442
0.725104
0.731254
0.736933
0.742137
0.747027
0.678444
0.65637
0.697304
0.748243
0.790736
0.825292
0.854673
0.880981
0.905454
0.928747
0.951179
0.972882
0.993879
1.01414
1.03359
1.05217
1.06981
1.08647
1.1021
1.11671
1.1303
1.1429
1.15453
1.16525
1.17511
1.18416
1.19246
1.20007
1.20698
1.21341
0.811729
0.800023
0.873333
0.94635
1.00608
1.05555
1.09853
1.13749
1.17385
1.20836
1.24138
1.27305
1.30339
1.33235
1.35985
1.38581
1.41018
1.43292
1.45403
1.47354
1.4915
1.50798
1.52305
1.53682
1.54937
1.56079
1.57118
1.58063
1.5892
1.59705
0.889718
0.890517
0.988808
1.08056
1.15667
1.22149
1.27911
1.33201
1.38164
1.42877
1.47377
1.51677
1.55776
1.59664
1.6333
1.66765
1.69962
1.72921
1.75643
1.78137
1.80412
1.82481
1.84358
1.86057
1.87593
1.8898
1.90233
1.91364
1.92385
1.93304
0.937757
0.948484
1.05881
1.16488
1.25707
1.3385
1.41252
1.48123
1.54587
1.60716
1.66548
1.72095
1.77358
1.82329
1.86996
1.91351
1.95389
1.99112
2.02525
2.05639
2.0847
2.11035
2.13354
2.15448
2.17334
2.19034
2.20563
2.2194
2.23179
2.24289
0.963316
0.977934
1.09255
1.20924
1.31607
1.41379
1.50441
1.58931
1.6694
1.74526
1.81723
1.88545
1.94995
2.01067
2.06753
2.12047
2.16948
2.21459
2.2559
2.29357
2.32778
2.35877
2.38678
2.41204
2.4348
2.45528
2.47372
2.4903
2.50522
2.51856
0.969925
0.986059
1.10152
1.22629
1.34589
1.45853
1.56474
1.66506
1.75997
1.84986
1.93498
2.01549
2.09143
2.16276
2.22945
2.29147
2.34883
2.40161
2.44994
2.49402
2.53408
2.57039
2.60321
2.63284
2.65955
2.68362
2.70528
2.72478
2.74234
2.75805
0.962958
0.980431
1.09617
1.22758
1.35812
1.48386
1.60396
1.71819
1.82658
1.92928
2.02647
2.11826
2.20471
2.28582
2.36158
2.43198
2.49708
2.55698
2.61186
2.66194
2.70749
2.74881
2.7862
2.82
2.8505
2.878
2.90279
2.92513
2.94528
2.96332
0.947592
0.967446
1.08425
1.22156
1.36152
1.49855
1.63072
1.7571
1.87732
1.99131
2.09914
2.20092
2.29669
2.38648
2.4703
2.54819
2.6202
2.68649
2.74725
2.80274
2.85325
2.89911
2.94067
2.97826
3.01224
3.04291
3.07059
3.09557
3.11812
3.13833
0.928146
0.951598
1.07041
1.21324
1.3615
1.50835
1.65097
1.78785
1.91827
2.04199
2.15902
2.26942
2.37325
2.47055
2.56136
2.64573
2.72375
2.7956
2.86149
2.92171
2.97657
3.02643
3.07165
3.1126
3.14965
3.18314
3.2134
3.24073
3.26543
3.2876
0.907608
0.935475
1.05691
1.20501
1.36078
1.51637
1.66816
1.81415
1.95337
2.08545
2.21033
2.32807
2.43876
2.54246
2.63921
2.7291
2.81225
2.88884
2.95911
3.02337
3.08195
3.13524
3.18361
3.22746
3.26716
3.30308
3.33557
3.36495
3.39151
3.41539
0.887631
0.920235
1.04457
1.19773
1.36046
1.52397
1.68395
1.83796
1.98482
2.12408
2.25567
2.37965
2.49615
2.60523
2.707
2.80154
2.88899
2.96957
3.04353
3.11119
3.17292
3.22909
3.28012
3.32642
3.36837
3.40635
3.44073
3.47184
3.5
3.52533
0.868892
0.906216
1.03355
1.19159
1.36085
1.53166
1.69902
1.86015
2.0137
2.15917
2.29649
2.42578
2.54717
2.66079
2.76675
2.86518
2.95623
3.04014
3.11718
3.18767
3.25201
3.3106
3.36385
3.41218
3.456
3.49571
3.53167
3.56423
3.59373
3.62027
0.851516
0.893396
1.02377
1.18655
1.36198
1.53953
1.7136
1.88108
2.04048
2.19132
2.33354
2.46732
2.59283
2.71025
2.81971
2.92137
3.01542
3.10208
3.18166
3.25451
3.32101
3.38159
3.43667
3.48669
3.53206
3.57319
3.61046
3.64422
3.67481
3.70236
0.835401
0.881643
1.0151
1.18251
1.3638
1.54759
1.72773
1.90084
2.06537
2.22082
2.3672
2.50475
2.63371
2.75427
2.86663
2.97096
3.06746
3.1564
3.23807
3.31284
3.38111
3.44332
3.4999
3.55129
3.59793
3.64022
3.67856
3.7133
3.7448
3.77316
0.820388
0.870819
1.00745
1.17941
1.36624
1.55579
1.74142
1.9195
2.08845
2.24782
2.3977
2.53838
2.67016
2.7933
2.90801
3.01451
3.113
3.20377
3.28713
3.36345
3.43316
3.49668
3.55447
3.60697
3.65463
3.69786
3.73706
3.77259
3.80481
3.83384
0.806329
0.860808
1.00071
1.17715
1.36926
1.56412
1.75465
1.93708
2.1098
2.27245
2.42519
2.5684
2.70245
2.82764
2.94423
3.05243
3.1525
3.24471
3.3294
3.40695
3.47778
3.54234
3.60108
3.65446
3.70292
3.74689
3.78676
3.82292
3.85571
3.88525
0.793104
0.851517
0.994807
1.1757
1.37281
1.57255
1.76744
1.95361
2.12949
2.2948
2.44983
2.59503
2.73083
2.85759
2.97559
3.08509
3.18634
3.27965
3.36535
3.44382
3.51551
3.58085
3.64031
3.69435
3.74342
3.78794
3.82833
3.86496
3.89817
3.92811
0.780617
0.842872
0.989685
1.17499
1.37686
1.58106
1.7798
1.96914
2.1476
2.31502
2.47178
2.61844
2.75552
2.8834
3.00241
3.11282
3.21491
3.30899
3.39539
3.47452
3.5468
3.61269
3.67266
3.72716
3.77666
3.82158
3.86232
3.89928
3.9328
3.963
0.76879
0.83481
0.985284
1.17499
1.38138
1.58964
1.79174
1.98372
2.16422
2.3332
2.4912
2.63886
2.77676
2.90535
3.02499
3.13596
3.23856
3.3331
3.41993
3.49945
3.57209
3.63832
3.69859
3.75338
3.80313
3.84828
3.88925
3.9264
3.9601
3.99046
0.757559
0.827281
0.981554
1.17565
1.38635
1.5983
1.80329
1.99741
2.17944
2.3495
2.50827
2.65648
2.7948
2.92372
3.04363
3.15483
3.25763
3.35235
3.43935
3.51902
3.59181
3.65816
3.71855
3.77344
3.82329
3.86853
3.90957
3.94681
3.98056
4.01098
0.746871
0.820241
0.978449
1.17692
1.39173
1.60702
1.81447
2.01027
2.19335
2.36404
2.52314
2.67151
2.80987
2.93877
3.05862
3.16975
3.27247
3.36711
3.45403
3.53362
3.60633
3.67262
3.73294
3.78777
3.83756
3.88275
3.92375
3.96093
3.99464
4.02501
0.736681
0.813652
0.975926
1.17879
1.39751
1.61582
1.82533
2.02236
2.20608
2.37697
2.53601
2.68416
2.82222
2.95077
3.07025
3.18102
3.2834
3.37771
3.46431
3.54362
3.61605
3.68208
3.74217
3.79678
3.84636
3.89136
3.93218
3.9692
4.00275
4.03297
0.726948
0.807482
0.973946
1.1812
1.40367
1.62469
1.83589
2.03376
2.2177
2.38843
2.54705
2.69464
2.83207
2.95997
3.07881
3.18896
3.29074
3.38448
3.47055
3.54936
3.62133
3.68692
3.74661
3.80084
3.85007
3.89475
3.93526
3.972
4.00529
4.03526
0.71764
0.801699
0.972469
1.18413
1.4102
1.63365
1.84618
2.04453
2.22834
2.39855
2.55642
2.70314
2.83965
2.96663
3.08457
3.19384
3.29479
3.38775
3.47308
3.55119
3.62251
3.6875
3.74661
3.80032
3.84906
3.89328
3.93337
3.96971
4.00263
4.03226
0.708724
0.796278
0.971461
1.18754
1.41706
1.6427
1.85626
2.05475
2.2381
2.40747
2.5643
2.70987
2.84519
2.97099
3.08778
3.19595
3.29585
3.38781
3.4722
3.54943
3.61992
3.68413
3.74252
3.79555
3.84367
3.8873
3.92685
3.96269
3.99514
4.02433
0.700174
0.791192
0.970884
1.1914
1.42425
1.65184
1.86614
2.06448
2.24708
2.41533
2.57084
2.71501
2.8489
2.97329
3.0887
3.19555
3.29419
3.38495
3.46822
3.54438
3.61387
3.67714
3.73466
3.78687
3.83423
3.87715
3.91605
3.95128
3.98315
4.01181
0.691964
0.786419
0.970706
1.19568
1.43174
1.66108
1.87588
2.0738
2.25538
2.42227
2.57622
2.71875
2.85099
2.97375
3.08758
3.1929
3.29008
3.37946
3.46141
3.53633
3.60466
3.66684
3.72333
3.77459
3.82106
3.86315
3.90128
3.93579
3.96699
3.99502
0.684072
0.781936
0.970892
1.20034
1.43952
1.67043
1.8855
2.08277
2.26311
2.42841
2.58059
2.72127
2.85165
2.97258
3.08463
3.18824
3.28378
3.37159
3.45205
3.52557
3.59258
3.65351
3.70884
3.75901
3.80446
3.84561
3.88285
3.91654
3.94698
3.9743
0.676476
0.777722
0.971409
1.20534
1.44757
1.67989
1.89505
2.09146
2.27036
2.43387
2.58409
2.72274
2.85108
2.96999
3.08008
3.1818
3.27552
3.3616
3.44041
3.51237
3.57789
3.63744
3.69147
3.74042
3.78473
3.82482
3.86108
3.89385
3.92343
3.94995
0.669156
0.773755
0.972223
1.21066
1.45587
1.68948
1.90455
2.09994
2.27722
2.43877
2.58687
2.72332
2.84945
2.96619
3.07415
3.1738
3.26554
3.34972
3.42673
3.49697
3.56088
3.6189
3.6715
3.71911
3.76217
3.80109
3.83626
3.86802
3.89665
3.92229
0.662091
0.770014
0.973302
1.21627
1.46439
1.69918
1.91404
2.10826
2.28378
2.44324
2.58906
2.72317
2.84694
2.96134
3.06702
3.16447
3.25407
3.3362
3.41125
3.47964
3.54179
3.59816
3.6492
3.69536
3.73706
3.77471
3.80869
3.83935
3.86695
3.89163
0.655264
0.766478
0.974612
1.22211
1.47312
1.70901
1.92356
2.11649
2.29014
2.44738
2.5908
2.72243
2.84371
2.95564
3.0589
3.15399
3.24131
3.32126
3.39422
3.46062
3.52089
3.57549
3.62486
3.66945
3.70968
3.74597
3.77868
3.80815
3.83464
3.8583
0.648655
0.763126
0.976121
1.22817
1.48204
1.71897
1.93312
2.12468
2.29636
2.45129
2.59221
2.72126
2.83993
2.94926
3.04997
3.14257
3.22749
3.30512
3.37586
3.44015
3.49843
3.55113
3.59873
3.64165
3.68034
3.71517
3.74653
3.77473
3.80005
3.82261
0.642246
0.759937
0.977794
1.2344
1.49112
1.72906
1.94275
2.13289
2.30253
2.45507
2.59341
2.71978
2.83574
2.94237
3.04041
3.13041
3.2128
3.28799
3.35641
3.41848
3.47464
3.52536
3.57109
3.61226
3.6493
3.68261
3.71254
3.73941
3.76348
3.7849
0.636018
0.756887
0.979597
1.24076
1.50033
1.73926
1.95249
2.14116
2.30872
2.45882
2.59451
2.71812
2.83128
2.93511
3.03039
3.11768
3.19744
3.27009
3.33608
3.39583
3.44979
3.49843
3.5422
3.58154
3.61687
3.64857
3.67701
3.70249
3.72527
3.74548
0.629952
0.753954
0.981494
1.24723
1.50966
1.74959
1.96234
2.14954
2.315
2.46262
2.59561
2.7164
2.82669
2.92765
3.02007
3.10456
3.1816
3.25163
3.31509
3.37243
3.42411
3.4706
3.51234
3.54978
3.58333
3.61337
3.64026
3.6643
3.68573
3.70471
0.624029
0.751113
0.983448
1.25375
1.51907
1.76003
1.97232
2.15807
2.32143
2.46655
2.59682
2.71475
2.82211
2.92012
3.00963
3.09124
3.16548
3.2328
3.29366
3.34852
3.39785
3.44211
3.48176
3.51725
3.54897
3.57731
3.6026
3.62516
3.64521
3.66291
0.618227
0.748339
0.985423
1.26028
1.52853
1.77057
1.98246
2.16678
2.32807
2.4707
2.59823
2.71327
2.81766
2.91268
2.9992
3.07788
3.14925
3.2138
3.272
3.32432
3.37124
3.41323
3.45075
3.48423
3.51408
3.54067
3.56434
3.58538
3.60403
3.62044
0.612525
0.745605
0.987378
1.26678
1.53801
1.7812
1.99276
2.17571
2.33496
2.47513
2.59992
2.71206
2.81346
2.90544
2.98894
3.06464
3.1331
3.19483
3.25032
3.30006
3.34453
3.38421
3.41955
3.451
3.47895
3.50377
3.52579
3.5453
3.56253
3.57763
0.6069
0.742881
0.989273
1.27322
1.54747
1.7919
2.00322
2.18489
2.34216
2.4799
2.60198
2.71121
2.80961
2.89855
2.97899
3.05168
3.11719
3.17607
3.22882
3.27594
3.31794
3.35528
3.38843
3.41782
3.44386
3.4669
3.48726
3.50523
3.52103
3.53483
0.601327
0.740137
0.991063
1.27953
1.55689
1.80266
2.01386
2.19434
2.34972
2.48508
2.60448
2.71083
2.80623
2.89211
2.9695
3.03915
3.1017
3.1577
3.2077
3.2522
3.2917
3.32669
3.35764
3.38498
3.40909
3.43035
3.44905
3.46548
3.47986
3.49236
0.595779
0.737338
0.992705
1.28567
1.56621
1.81346
2.02466
2.20408
2.35765
2.49072
2.60749
2.711
2.80342
2.88626
2.96058
3.0272
3.08678
3.13992
3.18715
3.22902
3.26603
3.29868
3.32743
3.35272
3.37492
3.3944
3.41145
3.42635
3.43933
3.45054
0.590221
0.734433
0.994153
1.29159
1.57539
1.82425
2.03562
2.21412
2.366
2.49687
2.61107
2.71179
2.80127
2.88108
2.95236
3.01597
3.0726
3.12287
3.16736
3.20661
3.24115
3.27147
3.29804
3.32129
3.3416
3.35932
3.37475
3.38815
3.39974
3.4097
0.584601
0.731335
0.995362
1.29727
1.58439
1.83502
2.04673
2.22446
2.37479
2.50356
2.61528
2.71327
2.79986
2.87669
2.94497
3.00559
3.05929
3.10673
3.14849
3.18516
3.21725
3.24527
3.26969
3.29093
3.30938
3.32537
3.33921
3.35114
3.36139
3.37012
0.578856
0.727917
0.996295
1.30269
1.59314
1.84572
2.05795
2.23509
2.38403
2.51082
2.62017
2.71551
2.79927
2.87318
2.9385
2.99618
3.04699
3.09164
3.13072
3.16484
3.19452
3.22029
3.2426
3.26188
3.2785
3.2928
3.30508
3.31558
3.32452
3.33207
0.572936
0.724089
0.996903
1.30783
1.60158
1.85631
2.06927
2.24602
2.39373
2.51869
2.62578
2.71856
2.79957
2.87063
2.93306
2.98785
3.03584
3.07774
3.1142
3.14582
3.17315
3.19671
3.21696
3.23432
3.24917
3.26184
3.27261
3.28172
3.2894
3.29581
0.566801
0.719861
0.997154
1.31255
1.60963
1.86673
2.08063
2.2572
2.40388
2.52717
2.63212
2.72246
2.80082
2.86912
2.92872
2.9807
3.02594
3.06516
3.09906
3.12825
3.15329
3.17471
3.19296
3.20846
3.2216
3.23268
3.24199
3.24978
3.25625
3.26156
0.560408
0.715483
0.997123
1.31645
1.61724
1.87693
2.09199
2.26861
2.41447
2.53626
2.63923
2.72725
2.80307
2.86869
2.92557
2.97483
3.01739
3.05402
3.08544
3.11227
3.1351
3.15443
3.17075
3.18447
3.19595
3.20551
3.21343
3.21995
3.22525
3.22952
0.553664
0.710509
0.996431
1.31983
1.62443
1.88684
2.10328
2.2802
2.42546
2.54595
2.6471
2.73294
2.80635
2.86941
2.92367
2.9703
3.01028
3.04441
3.07343
3.098
3.11868
3.13602
3.15049
3.16249
3.17239
3.1805
3.18709
3.19239
3.19659
3.19987
0.546458
0.704563
0.994705
1.32296
1.63119
1.89637
2.11441
2.29192
2.43682
2.55622
2.65573
2.73955
2.81068
2.87131
2.92306
2.96718
3.00468
3.03641
3.06314
3.08552
3.10416
3.1196
3.13229
3.14265
3.15104
3.15777
3.16309
3.16724
3.17041
3.17274
0.538752
0.698052
0.992047
1.32529
1.63746
1.90544
2.12532
2.30369
2.4485
2.56703
2.6651
2.74706
2.81607
2.87441
2.92378
2.9655
3.00064
3.03008
3.05462
3.07493
3.09162
3.10524
3.11625
3.12505
3.13201
3.13743
3.14156
3.14463
3.14681
3.14826
0.5305
0.690847
0.988358
1.32676
1.64315
1.9139
2.13591
2.31542
2.46042
2.57832
2.67516
2.75545
2.8225
2.8787
2.92583
2.96529
2.99819
3.02547
3.04793
3.06627
3.08112
3.09302
3.10243
3.10978
3.11539
3.11958
3.12259
3.12463
3.12589
3.12651
0.521649
0.682876
0.983702
1.32727
1.64798
1.92164
2.14608
2.32704
2.47249
2.59003
2.68586
2.76469
2.82995
2.88417
2.92922
2.96656
2.99736
3.02259
3.04309
3.05958
3.0727
3.08298
3.0909
3.09687
3.10122
3.10425
3.10621
3.1073
3.1077
3.10755
0.512134
0.674047
0.978489
1.32681
1.65133
1.92852
2.15572
2.33842
2.48462
2.60206
2.69713
2.7747
2.83837
2.89078
2.93391
2.96928
2.99812
3.02144
3.04012
3.05488
3.06637
3.07515
3.08167
3.08635
3.08953
3.09149
3.09247
3.09268
3.09227
3.0914
0.501877
0.664245
0.971925
1.32514
1.6537
1.93445
2.1647
2.34944
2.49669
2.61431
2.70886
2.78541
2.84769
2.89848
2.93986
2.97342
3.00045
3.02201
3.03898
3.05214
3.06213
3.0695
3.07473
3.07822
3.08031
3.08128
3.08136
3.08075
3.0796
3.07806
0.490792
0.653381
0.96367
1.32203
1.65523
1.93931
2.1729
2.35996
2.50855
2.62664
2.72096
2.79672
2.85783
2.9072
2.947
2.97891
3.00429
3.02423
3.03965
3.05133
3.05993
3.06601
3.07006
3.07245
3.07354
3.0736
3.07285
3.07148
3.06966
3.06751
0.478785
0.641354
0.954544
1.31766
1.65496
1.94284
2.18018
2.36983
2.52004
2.63891
2.73327
2.8085
2.86867
2.91682
2.95524
2.98569
3.00957
3.02804
3.04204
3.05237
3.05971
3.06462
3.06758
3.06898
3.06916
3.06838
3.06687
3.06482
3.06238
3.05967
0.465773
0.628029
0.943842
1.31132
1.6533
1.94537
2.18643
2.37888
2.53101
2.65095
2.74564
2.82061
2.88008
2.92723
2.96446
2.99362
3.01618
3.03334
3.04607
3.05519
3.06139
3.06524
3.06721
3.06771
3.06707
3.06554
3.06335
3.06068
3.05768
3.05446
0.451739
0.613284
0.931982
1.30322
1.64973
1.9466
2.19147
2.38694
2.54127
2.66258
2.75789
2.83288
2.8919
2.93828
2.97453
3.00259
3.024
3.04
3.05161
3.05965
3.06483
3.06774
3.06884
3.06854
3.06715
3.06495
3.06215
3.05893
3.05542
3.05175
0.437093
0.596872
0.917862
1.29325
1.64488
1.94631
2.19513
2.39386
2.55065
2.67362
2.76984
2.84512
2.90395
2.94979
2.98527
3.01243
3.03287
3.04788
3.0585
3.06561
3.0699
3.07198
3.07231
3.0713
3.06926
3.06647
3.06313
3.05942
3.05547
3.0514
0.422557
0.579045
0.901627
1.28142
1.63803
1.94435
2.19728
2.39949
2.559
2.68388
2.78129
2.85713
2.91602
2.96157
2.9965
3.02295
3.0426
3.05678
3.06658
3.07288
3.07641
3.07777
3.07743
3.07581
3.07321
3.0699
3.0661
3.06196
3.05762
3.0532
0.408354
0.560077
0.882307
1.26747
1.62943
1.94057
2.19777
2.40367
2.56613
2.69319
2.79205
2.8687
2.92791
2.97338
3.00798
3.03393
3.05296
3.06648
3.0756
3.08124
3.08413
3.08488
3.08399
3.08184
3.07877
3.07502
3.07082
3.06631
3.06164
3.05692
0.394583
0.540152
0.860244
1.25126
1.61826
1.93471
2.19639
2.40626
2.57191
2.70137
2.8019
2.87962
2.93938
2.98501
3.01949
3.04512
3.06372
3.07673
3.08532
3.09043
3.0928
3.09306
3.0917
3.08912
3.08565
3.08154
3.077
3.0722
3.06725
3.06228
0.381305
0.520098
0.835228
1.23138
1.60475
1.92657
2.193
2.40711
2.57616
2.70823
2.81067
2.88966
2.9502
2.99621
3.03076
3.05626
3.07459
3.08726
3.09546
3.10015
3.10212
3.10198
3.10025
3.09733
3.09354
3.08914
3.08433
3.07927
3.0741
3.06892
0.368669
0.499976
0.807823
1.2069
1.58769
1.91583
2.18739
2.40605
2.57873
2.71363
2.81818
2.89866
2.96016
3.00673
3.04154
3.06708
3.0853
3.09776
3.10569
3.11009
3.11175
3.11132
3.1093
3.10611
3.10207
3.09743
3.09241
3.08715
3.0818
3.07646
0.356659
0.480237
0.77851
1.17818
1.56672
1.90216
2.1793
2.40268
2.57923
2.71719
2.82406
2.90625
2.96894
3.01627
3.05152
3.07726
3.09552
3.10791
3.1157
3.11992
3.12138
3.12073
3.1185
3.1151
3.11087
3.10605
3.10086
3.09546
3.08996
3.08449
0.345278
0.460904
0.748245
1.14625
1.54078
1.88425
2.16814
2.39666
2.57737
2.71863
2.82807
2.91218
2.97625
3.02454
3.06041
3.08651
3.10496
3.11741
3.12517
3.1293
3.13064
3.12986
3.12748
3.12394
3.11957
3.11462
3.10931
3.10379
3.09819
3.09262
0.334539
0.442093
0.71727
1.11228
1.51114
1.86119
2.15255
2.38739
2.57269
2.71759
2.82986
2.91609
2.98177
3.03122
3.06787
3.0945
3.11328
3.12591
3.13376
3.1379
3.13921
3.13836
3.13591
3.13228
3.12782
3.12279
3.1174
3.1118
3.10613
3.10049
0.324453
0.423908
0.685889
1.07625
1.47884
1.83482
2.13247
2.37342
2.56427
2.71351
2.82894
2.91753
2.98507
3.03589
3.07352
3.10083
3.12008
3.13303
3.14108
3.14533
3.14669
3.14585
3.14339
3.13974
3.13524
3.13017
3.12474
3.1191
3.11338
3.1077
0.315026
0.406443
0.654253
1.03829
1.44386
1.80575
2.10962
2.35618
2.55191
2.70533
2.82439
2.91596
2.98566
3.03808
3.07686
3.10499
3.12486
3.13827
3.14664
3.15112
3.15262
3.15189
3.14948
3.14587
3.14139
3.13633
3.13089
3.12525
3.11952
3.11383
0.30626
0.389787
0.622641
0.99859
1.40629
1.77392
2.08406
2.33641
2.53717
2.69471
2.81708
2.91128
2.98308
3.03717
3.07733
3.10654
3.1272
3.14117
3.14996
3.15475
3.15649
3.15593
3.15365
3.15012
3.14571
3.1407
3.1353
3.12968
3.12398
3.11829
0.298154
0.374018
0.591191
0.957262
1.36621
1.73927
2.05571
2.31403
2.52007
2.68195
2.80781
2.90474
2.97868
3.03442
3.07583
3.10601
3.12739
3.14191
3.15111
3.15622
3.1582
3.15781
3.15565
3.15221
3.14786
3.14289
3.13752
3.13193
3.12626
3.12061
0.290703
0.359214
0.560245
0.914403
1.32365
1.70181
2.02454
2.28906
2.50058
2.66701
2.79655
2.89642
2.97266
3.03019
3.07298
3.10421
3.12638
3.14151
3.15117
3.15662
3.15886
3.15866
3.15666
3.15333
3.14905
3.14413
3.1388
3.13324
3.12759
3.12195
0.283896
0.345427
0.530103
0.87024
1.2784
1.6615
1.99049
2.26143
2.47868
2.64993
2.7834
2.88641
2.96512
3.0246
3.0689
3.1013
3.12438
3.1402
3.1504
3.15626
3.15881
3.15885
3.15702
3.15382
3.14964
3.1448
3.13951
3.13399
3.12835
3.12272
0.277713
0.332684
0.501008
0.82512
1.23057
1.61816
1.95337
2.23102
2.4543
2.63067
2.76835
2.87475
2.95616
3.01776
3.06373
3.09743
3.12151
3.13812
3.14892
3.15525
3.15816
3.15848
3.15686
3.15382
3.14976
3.14499
3.13978
3.13429
3.12868
3.12307
0.272136
0.320997
0.473209
0.779413
1.18008
1.5716
1.91317
2.19775
2.42734
2.60916
2.75134
2.86139
2.94573
3.00964
3.05744
3.09256
3.11777
3.13525
3.14674
3.15359
3.15691
3.15754
3.15616
3.15329
3.14937
3.1447
3.13956
3.13412
3.12855
3.12295
0.26714
0.310363
0.446856
0.733473
1.12707
1.52178
1.86983
2.16149
2.39769
2.5853
2.7323
2.84627
2.93376
3.00018
3.04997
3.08666
3.1131
3.13154
3.14377
3.15122
3.15498
3.15596
3.15485
3.15219
3.14842
3.14387
3.1388
3.13342
3.12789
3.12232
0.2627
0.300776
0.422152
0.687573
1.07162
1.46865
1.82307
2.12201
2.36522
2.55896
2.7111
2.82929
2.92017
2.98931
3.04125
3.07965
3.10743
3.12692
3.13998
3.14806
3.15233
3.15369
3.15287
3.15044
3.14684
3.14241
3.13744
3.13212
3.12663
3.12109
0.25879
0.292219
0.399299
0.642296
1.01396
1.4121
1.77265
2.07907
2.32969
2.52998
2.68762
2.81033
2.90488
2.97695
3.03123
3.07147
3.10071
3.12134
3.1353
3.14408
3.14889
3.15067
3.15017
3.14798
3.14457
3.14028
3.1354
3.13016
3.12472
3.11921
0.255378
0.284661
0.378464
0.598381
0.954605
1.35224
1.71854
2.03256
2.29093
2.49816
2.66169
2.78927
2.88776
2.96301
3.01981
3.06206
3.09287
3.11476
3.12968
3.13922
3.14462
3.14686
3.14672
3.1448
3.14158
3.13744
3.13267
3.12751
3.12212
3.11664
0.25243
0.278051
0.359718
0.556445
0.894059
1.28932
1.66082
1.98226
2.24869
2.46327
2.63313
2.76594
2.8687
2.94738
3.00692
3.05134
3.08388
3.10712
3.1231
3.13347
3.13951
3.14225
3.14248
3.14085
3.13785
3.13387
3.12922
3.12414
3.1188
3.11336
0.249911
0.272328
0.343058
0.516961
0.832977
1.22313
1.599
1.92798
2.20275
2.42512
2.60174
2.74018
2.84755
2.92994
2.99246
3.03925
3.07366
3.09837
3.11551
3.12678
3.13352
3.13679
3.13744
3.13612
3.13336
3.12956
3.12503
3.12004
3.11476
3.10935
0.247783
0.267423
0.328432
0.480384
0.772133
1.15385
1.53302
1.86962
2.15294
2.38351
2.56731
2.7118
2.82415
2.91058
2.97633
3.0257
3.06214
3.08846
3.10686
3.11911
3.12661
3.13047
3.13157
3.1306
3.12809
3.12447
3.12008
3.11518
3.10996
3.10458
0.246011
0.263268
0.315755
0.44699
0.712005
1.08186
1.46328
1.80703
2.09898
2.33814
2.52961
2.68061
2.79833
2.88913
2.9584
3.01057
3.04925
3.07732
3.09709
3.11042
3.11876
3.12326
3.12485
3.12425
3.12201
3.1186
3.11435
3.10955
3.10439
3.09905
0.244557
0.259794
0.304922
0.417107
0.653772
1.00775
1.38963
1.7397
2.04041
2.28864
2.48831
2.64633
2.76987
2.86542
2.93853
2.99377
3.03488
3.06487
3.08616
3.10067
3.10992
3.11513
3.11726
3.11706
3.11512
3.11193
3.10784
3.10314
3.09806
3.09275
0.243388
0.256929
0.295792
0.390866
0.598468
0.931547
1.31108
1.66722
1.97697
2.23468
2.4431
2.60867
2.73852
2.83925
2.91654
2.97514
3.01892
3.05103
3.07398
3.08979
3.10005
3.10603
3.10875
3.109
3.1074
3.10445
3.10053
3.09595
3.09093
3.08567
0.242468
0.254606
0.288211
0.368271
0.547357
0.854955
1.228
1.5893
1.90828
2.1759
2.39362
2.56733
2.70402
2.81039
2.89225
2.95452
3.00124
3.03567
3.06045
3.07769
3.08906
3.09591
3.09928
3.10002
3.09879
3.09611
3.09238
3.08793
3.083
3.07778
0.241763
0.252758
0.282016
0.349174
0.501042
0.77916
1.14144
1.50644
1.83391
2.11176
2.3394
2.52189
2.66603
2.77855
2.86542
2.93172
2.98166
3.01865
3.04545
3.06427
3.07687
3.08467
3.08877
3.09006
3.08924
3.08686
3.08334
3.07903
3.0742
3.06904
0.241241
0.25132
0.277044
0.333365
0.46022
0.705936
1.05184
1.41803
1.7533
2.04156
2.27978
2.47182
2.62411
2.74337
2.83575
2.9065
2.96
2.99981
3.02884
3.04941
3.06338
3.07223
3.07714
3.07904
3.07868
3.07663
3.07335
3.06921
3.06447
3.05937
0.24087
0.250229
0.273128
0.320541
0.425208
0.63727
0.960349
1.32354
1.66594
1.96463
2.21409
2.4165
2.57772
2.70444
2.80291
2.87857
2.936
2.97894
3.01044
3.03294
3.04842
3.05844
3.06424
3.06682
3.06696
3.06528
3.06227
3.0583
3.05368
3.04864
0.240621
0.249426
0.270109
0.310349
0.395943
0.574495
0.868994
1.22413
1.57153
1.88046
2.14171
2.3553
2.52631
2.66126
2.76648
2.84761
2.9094
2.9558
2.99004
3.01468
3.03183
3.04313
3.04992
3.05324
3.05394
3.05266
3.04993
3.04615
3.04165
3.03667
0.240465
0.248856
0.267836
0.302423
0.372173
0.518985
0.779554
1.12088
1.47072
1.78874
2.06192
2.28747
2.46921
2.61326
2.726
2.81322
2.8799
2.93017
2.96745
2.99448
3.01347
3.02619
3.03406
3.0382
3.03949
3.03864
3.03621
3.03263
3.02825
3.02332
0.240379
0.248469
0.266173
0.296401
0.353404
0.47177
0.694908
1.01458
1.36307
1.68902
1.97388
2.21212
2.40559
2.55976
2.68091
2.77498
2.84715
2.90179
2.9425
2.9722
2.99326
3.00757
3.01664
3.02167
3.02362
3.02324
3.02113
3.01776
3.01349
3.00862
0.24034
0.248221
0.264997
0.291942
0.338975
0.433012
0.617394
0.906652
1.24803
1.58024
1.87653
2.12816
2.33443
2.49983
2.63043
2.73225
2.81066
2.87027
2.91489
2.94765
2.97106
2.98716
2.99759
3.00362
3.0063
3.00644
3.00468
3.00153
2.99738
2.99256
0.24033
0.248072
0.264201
0.288753
0.328245
0.402541
0.550208
0.801583
1.12691
1.46208
1.76887
2.03419
2.25432
2.43221
2.57346
2.68408
2.76964
2.83496
2.88409
2.92036
2.9465
2.96469
2.97668
2.98388
2.9874
2.98813
2.98677
2.98388
2.97988
2.97512
0.240335
0.247981
0.263638
0.286343
0.319766
0.37719
0.488971
0.6932
0.988013
1.31883
1.63522
1.91525
2.15191
2.34532
2.50009
2.62203
2.71683
2.78958
2.8446
2.88551
2.91524
2.93619
2.95027
2.95903
2.9637
2.96524
2.96444
2.9619
2.9581
2.95343
0.240344
0.247932
0.263288
0.284735
0.313802
0.358428
0.439679
0.593978
0.844077
1.15804
1.47888
1.77278
2.02729
2.2385
2.40925
2.54475
2.65074
2.73253
2.79476
2.84135
2.87551
2.89988
2.91657
2.92729
2.93339
2.93596
2.93587
2.93379
2.93027
2.92572
0.240338
0.247897
0.2631
0.283871
0.310448
0.347341
0.408348
0.522424
0.723121
1.00681
1.3233
1.62682
1.89708
2.1259
2.31316
2.46301
2.58095
2.67247
2.74249
2.79522
2.83419
2.86227
2.8818
2.89464
2.90231
2.90601
2.90669
2.90511
2.90187
2.89744
0.240314
0.247853
0.262969
0.283365
0.308486
0.340637
0.388504
0.472983
0.627385
0.870148
1.17091
1.47846
1.76166
2.00745
2.21161
2.37656
2.50726
2.60921
2.68759
2.74693
2.79105
2.8231
2.84564
2.86074
2.87006
2.87493
2.87641
2.87534
2.87237
2.86804
0.240275
0.247794
0.262856
0.283047
0.307344
0.336648
0.376189
0.440167
0.556133
0.753542
1.02704
1.33051
1.62255
1.88356
2.10458
2.28527
2.42957
2.54276
2.63017
2.69665
2.74631
2.7826
2.80834
2.82582
2.83686
2.84294
2.84523
2.84465
2.84194
2.83767
0.240221
0.247721
0.262737
0.282809
0.306644
0.334263
0.368623
0.419018
0.506026
0.660196
0.896679
1.18643
1.48216
1.75524
1.9923
2.18907
2.34773
2.47301
2.57023
2.64446
2.70015
2.74105
2.77025
2.79027
2.80314
2.81048
2.81359
2.8135
2.81102
2.8068
0.240157
0.247635
0.262608
0.2826
0.306174
0.33281
0.363978
0.405557
0.472043
0.589605
0.784003
1.04849
1.34115
1.62335
1.87487
2.08767
2.26138
2.39963
2.50753
2.59029
2.65262
2.6986
2.73161
2.75442
2.76928
2.77799
2.78198
2.7824
2.78016
2.77597
0.240086
0.247539
0.262466
0.282394
0.305814
0.331886
0.361113
0.397041
0.449491
0.538707
0.692661
0.923106
1.20248
1.48811
1.75188
1.98041
2.16975
2.32191
2.44145
2.5336
2.6033
2.65494
2.69219
2.71812
2.7352
2.74542
2.75039
2.75137
2.74936
2.74518
0.240008
0.247435
0.262313
0.282181
0.3055
0.331249
0.359319
0.391689
0.43479
0.503319
0.622204
0.814133
1.07056
1.35246
1.62463
1.86749
2.07251
2.23926
2.37133
2.47372
2.55155
2.60945
2.65143
2.68083
2.70039
2.7123
2.71834
2.71993
2.71818
2.71397
0.239927
0.247327
0.262152
0.281957
0.305198
0.330757
0.35815
0.388316
0.425319
0.479387
0.570377
0.724076
0.949682
1.22011
1.49541
1.74987
1.96997
2.15164
2.29692
2.41031
2.49694
2.5617
2.60887
2.64209
2.66437
2.67814
2.68536
2.6876
2.68611
2.68185
0.239842
0.247214
0.261985
0.281723
0.304893
0.330331
0.357331
0.386158
0.419247
0.463504
0.533734
0.653684
0.843347
1.09339
1.36616
1.62852
1.86238
2.059
2.21808
2.34321
2.43933
2.5115
2.56429
2.60166
2.62689
2.64266
2.65115
2.65408
2.65284
2.6485
0.239757
0.2471
0.261815
0.281483
0.304583
0.329932
0.356701
0.384727
0.415343
0.453067
0.508467
0.601037
0.754671
0.976236
1.23865
1.50464
1.75005
1.96129
2.13465
2.27223
2.37856
2.45873
2.5176
2.55943
2.58782
2.60572
2.61552
2.61914
2.61811
2.61361
0.23967
0.246985
0.261643
0.281239
0.304266
0.32954
0.356165
0.383719
0.412803
0.446255
0.49138
0.563057
0.684018
0.872037
1.11616
1.38054
1.63399
1.85874
2.04659
2.19731
2.31459
2.40342
2.46886
2.51549
2.54724
2.56735
2.57848
2.58275
2.58183
2.57708
0.239583
0.246871
0.26147
0.280993
0.303944
0.329146
0.355672
0.382946
0.411097
0.441806
0.479981
0.536473
0.630401
0.783937
1.002
1.25814
1.51594
1.75208
1.95418
2.11861
2.24761
2.34581
2.41839
2.47021
2.50556
2.52799
2.54045
2.54529
2.5444
2.53926
0.239497
0.246756
0.261298
0.280747
0.303621
0.328751
0.355197
0.3823
0.40989
0.438869
0.472427
0.518229
0.591227
0.713248
0.899961
1.13936
1.39652
1.64157
1.85735
2.036
2.17763
2.28611
2.36657
2.42415
2.46345
2.48841
2.50229
2.50772
2.5068
2.5012
0.239411
0.246644
0.261128
0.280502
0.303298
0.328355
0.354731
0.381718
0.408972
0.436878
0.467419
0.505844
0.563264
0.658509
0.812221
1.02731
1.27769
1.52845
1.75623
1.94917
2.10427
2.22408
2.31339
2.3775
2.42134
2.44923
2.46478
2.47093
2.47003
2.46396
0.239327
0.246533
0.26096
0.28026
0.302977
0.327961
0.354269
0.381169
0.408215
0.435465
0.464074
0.49753
0.543797
0.617897
0.740897
0.926581
1.16187
1.41303
1.65039
1.85723
2.02651
2.15874
2.25801
2.32959
2.37874
2.41013
2.42776
2.43489
2.43415
2.42766
0.239244
0.246424
0.260794
0.28002
0.302659
0.327569
0.353809
0.380635
0.407543
0.434392
0.461786
0.491956
0.530438
0.588569
0.685002
0.839217
1.05209
1.29689
1.54009
1.75939
1.94314
2.08875
2.19907
2.27913
2.33439
2.36991
2.39005
2.39844
2.39802
2.39112
0.239162
0.246317
0.260631
0.279783
0.302344
0.327181
0.353352
0.380108
0.406913
0.433508
0.460144
0.488182
0.52134
0.56781
0.642649
0.766221
0.950684
1.1821
1.42679
1.65605
1.85388
2.01346
2.13569
2.22506
2.28711
2.32723
2.35019
2.36
2.35993
2.35257
0.239082
0.246213
0.260471
0.27955
0.302033
0.326796
0.352898
0.379586
0.406304
0.432727
0.458888
0.485563
0.515171
0.553451
0.611866
0.708835
0.862742
1.0731
1.31265
1.54846
1.75929
1.93307
2.06795
2.16733
2.23667
2.28168
2.30756
2.31873
2.31883
2.31076
0.239004
0.246112
0.260315
0.27932
0.301725
0.326415
0.352449
0.379068
0.405704
0.431997
0.45785
0.483664
0.510956
0.543611
0.589996
0.665193
0.789191
0.972897
1.20022
1.43812
1.65995
1.84799
1.99629
2.10653
2.18375
2.23394
2.26276
2.27515
2.27517
2.26608
0.238928
0.246015
0.260162
0.279095
0.301424
0.326042
0.35201
0.37856
0.405119
0.431303
0.456941
0.482205
0.508004
0.536894
0.574751
0.633153
0.73038
0.884096
1.09221
1.32697
1.5567
1.75845
1.92096
2.04315
2.12922
2.1852
2.21726