/*--------------------------------*- C++ -*----------------------------------*\
| =========                 |                                                 |
| \\      /  F ield         | OpenFOAM: The Open Source CFD Toolbox           |
|  \\    /   O peration     | Version:  2312                                  |
|   \\  /    A nd           | Website:  www.openfoam.com                      |
|    \\/     M anipulation  |                                                 |
\*---------------------------------------------------------------------------*/
FoamFile
{
    version     2.0;
    format      ascii;
    arch        "LSB;label=32;scalar=64";
    class       volScalarField;
    location    "20000";
    object      nut;
}
// * * * * * * * * * * * * * * * * * * * * * * * * * * * * * * * * * * * * * //

dimensions      [0 2 -1 0 0 0 0];

internalField   nonuniform List<scalar> 
29400
(
1.33387e-08
2.47543e-08
4.26478e-08
6.27848e-08
8.36512e-08
1.0281e-07
1.19643e-07
1.34001e-07
1.46049e-07
1.56092e-07
1.64441e-07
1.71384e-07
1.77172e-07
1.82015e-07
1.86085e-07
1.89525e-07
1.92448e-07
1.94946e-07
1.97091e-07
1.9894e-07
2.00539e-07
2.0193e-07
2.03143e-07
2.04205e-07
2.05137e-07
2.05958e-07
2.06682e-07
2.07328e-07
2.07898e-07
2.08401e-07
1.20094e-06
1.08772e-06
1.10612e-06
1.18747e-06
1.26253e-06
1.32491e-06
1.3766e-06
1.42179e-06
1.46346e-06
1.50321e-06
1.54178e-06
1.57948e-06
1.61637e-06
1.65238e-06
1.68738e-06
1.72124e-06
1.7538e-06
1.78494e-06
1.81455e-06
1.84255e-06
1.8689e-06
1.89361e-06
1.91668e-06
1.93816e-06
1.9581e-06
1.97659e-06
1.99368e-06
2.00951e-06
2.02402e-06
2.03753e-06
1.69967e-05
1.54601e-05
1.53304e-05
1.58495e-05
1.62664e-05
1.65423e-05
1.6721e-05
1.68531e-05
1.69695e-05
1.70856e-05
1.7208e-05
1.73387e-05
1.74771e-05
1.76219e-05
1.77708e-05
1.79217e-05
1.80724e-05
1.82211e-05
1.83659e-05
1.85055e-05
1.86391e-05
1.8766e-05
1.88857e-05
1.89981e-05
1.91033e-05
1.92013e-05
1.92923e-05
1.93768e-05
1.94544e-05
1.9527e-05
6.34651e-05
5.75832e-05
5.52873e-05
5.59765e-05
5.6738e-05
5.72956e-05
5.76772e-05
5.79549e-05
5.81764e-05
5.83683e-05
5.85467e-05
5.8722e-05
5.89008e-05
5.90869e-05
5.92818e-05
5.94852e-05
5.96953e-05
5.99099e-05
6.01258e-05
6.03403e-05
6.05509e-05
6.07557e-05
6.09528e-05
6.11413e-05
6.13202e-05
6.14891e-05
6.16479e-05
6.17968e-05
6.19346e-05
6.20676e-05
0.000132464
0.000111136
8.3827e-05
8.37413e-05
8.66933e-05
8.99199e-05
9.27755e-05
9.50965e-05
9.68704e-05
9.81581e-05
9.90657e-05
9.97164e-05
0.000100227
0.000100693
0.000101182
0.000101734
0.000102368
0.000103083
0.000103871
0.000104718
0.000105605
0.000106515
0.000107434
0.000108347
0.000109245
0.000110117
0.000110959
0.000111767
0.000112536
0.00011357
0.000182243
0.000124768
9.60938e-05
9.6395e-05
0.000100208
0.000104429
0.000108265
0.000111499
0.000114091
0.000116094
0.000117625
0.000118826
0.00011983
0.000120751
0.000121669
0.000122634
0.000123668
0.000124775
0.000125949
0.000127171
0.000128424
0.000129689
0.00013095
0.000132191
0.000133402
0.000134574
0.000135699
0.000136772
0.000137792
0.000139142
0.000191591
0.000135312
0.000104834
0.000105344
0.000110005
0.000115321
0.000120301
0.000124622
0.000128191
0.000131053
0.000133328
0.000135174
0.000136743
0.000138168
0.000139543
0.00014093
0.00014236
0.000143842
0.000145377
0.000146957
0.000148547
0.000150129
0.000151688
0.000153209
0.00015468
0.000156094
0.000157443
0.000158725
0.000159938
0.000161528
0.000200102
0.000142987
0.000110669
0.000111359
0.000116891
0.000123342
0.000129512
0.000134973
0.000139584
0.00014337
0.000146452
0.000149001
0.000151189
0.000153165
0.00015504
0.000156887
0.000158747
0.000160634
0.000162543
0.000164464
0.00016638
0.000168274
0.000170128
0.000171929
0.000173665
0.000175327
0.000176911
0.000178412
0.000179829
0.000181659
0.000206046
0.000147783
0.000114457
0.000115367
0.000121743
0.000129312
0.000136675
0.000143297
0.000148978
0.000153718
0.000157639
0.000160923
0.000163757
0.000166308
0.000168703
0.000171028
0.000173331
0.000175633
0.000177935
0.000180226
0.000182492
0.000184714
0.000186879
0.000188971
0.000190981
0.0001929
0.000194722
0.000196445
0.000198068
0.000200135
0.000208007
0.0001508
0.000117086
0.000118273
0.000125451
0.000134077
0.000142578
0.000150316
0.000157034
0.000162707
0.000167453
0.00017146
0.000174933
0.000178054
0.000180964
0.00018376
0.0001865
0.00018921
0.000191896
0.00019455
0.000197158
0.000199704
0.000202173
0.000204551
0.000206829
0.000208998
0.000211055
0.000212996
0.000214821
0.000217117
0.000208274
0.000152869
0.00011924
0.000120763
0.000128699
0.000138308
0.000147869
0.000156651
0.000164343
0.000170894
0.000176418
0.000181111
0.00018519
0.000188851
0.000192251
0.000195496
0.000198653
0.000201754
0.000204808
0.000207809
0.000210745
0.000213601
0.000216363
0.000219016
0.000221553
0.000223964
0.000226247
0.000228399
0.000230419
0.000232937
0.000207755
0.000154579
0.000121359
0.000123263
0.000131923
0.000142454
0.000153002
0.000162753
0.000171345
0.000178707
0.000184948
0.000190272
0.000194908
0.000199068
0.000202919
0.000206581
0.000210125
0.00021359
0.000216987
0.000220313
0.000223558
0.000226705
0.000229742
0.000232656
0.000235437
0.000238078
0.000240576
0.000242928
0.000245134
0.000247862
0.000206933
0.000156302
0.000123678
0.000125994
0.000135359
0.000146768
0.000158245
0.000168898
0.000178323
0.000186429
0.000193324
0.00019922
0.000204362
0.000208973
0.000213234
0.000217273
0.000221171
0.000224968
0.000228681
0.000232307
0.000235837
0.000239256
0.00024255
0.000245707
0.000248717
0.000251573
0.000254273
0.000256814
0.000259195
0.000262125
0.000206218
0.000158225
0.000126297
0.000129054
0.000139117
0.000151377
0.00016374
0.000175242
0.000185441
0.00019423
0.00020172
0.000208133
0.000213728
0.000218744
0.000223372
0.000227751
0.000231967
0.000236067
0.000240067
0.000243969
0.000247761
0.00025143
0.000254962
0.000258345
0.000261568
0.000264626
0.000267515
0.000270232
0.000272779
0.000275898
0.000205792
0.000160419
0.000129255
0.000132483
0.000143246
0.00015634
0.000169557
0.000181865
0.000192785
0.000202203
0.000210234
0.000217113
0.000223114
0.00022849
0.000233446
0.000238129
0.000242632
0.000247004
0.000251266
0.000255418
0.000259451
0.00026335
0.000267102
0.000270694
0.000274116
0.000277361
0.000280427
0.00028331
0.000286011
0.000289312
0.000205706
0.000162897
0.000132567
0.000136306
0.00014778
0.000161696
0.000175738
0.00018881
0.000200406
0.000210403
0.000218924
0.00022622
0.000232582
0.000238277
0.000243524
0.000248477
0.000253236
0.000257854
0.000262352
0.000266733
0.000270987
0.000275099
0.000279054
0.00028284
0.000286446
0.000289867
0.000293097
0.000296136
0.000298982
0.000302455
0.000205961
0.000165658
0.000136243
0.000140547
0.000152746
0.000167476
0.000182316
0.000196114
0.000208338
0.000218864
0.000227827
0.000235494
0.000242173
0.000248149
0.000253651
0.000258843
0.000263829
0.000268667
0.000273379
0.000277968
0.000282423
0.000286731
0.000290874
0.00029484
0.000298619
0.000302202
0.000305587
0.000308771
0.000311754
0.000315391
0.000206545
0.000168698
0.000140295
0.000145229
0.000158176
0.000173713
0.000189324
0.000203809
0.000216615
0.000227621
0.000236976
0.000244967
0.000251921
0.000258139
0.000263861
0.000269261
0.000274447
0.000279481
0.000284385
0.000289162
0.000293802
0.000298289
0.000302606
0.000306739
0.000310678
0.000314414
0.000317944
0.000321264
0.000324375
0.000328169
0.000207446
0.000172015
0.00014474
0.000150381
0.000164104
0.000180445
0.000196801
0.000211932
0.000225271
0.000236706
0.000246404
0.000254673
0.000261859
0.000268279
0.000274188
0.000279765
0.000285125
0.00029033
0.000295406
0.000300353
0.00030516
0.00030981
0.000314288
0.000318576
0.000322663
0.000326541
0.000330206
0.000333655
0.000336886
0.00034083
0.000208657
0.000175613
0.000149594
0.000156035
0.000170569
0.000187712
0.000204788
0.000220523
0.000234346
0.000246158
0.000256148
0.000264647
0.000272021
0.000278606
0.000284666
0.000290391
0.000295898
0.000301251
0.000306476
0.000311574
0.000316532
0.000321332
0.000325955
0.000330386
0.000334611
0.000338621
0.000342412
0.000345981
0.000349324
0.000353411
0.000210177
0.0001795
0.000154879
0.000162226
0.000177615
0.000195561
0.000213331
0.000229628
0.000243884
0.00025602
0.00026625
0.000274929
0.000282449
0.000289158
0.000295336
0.000301176
0.000306803
0.000312281
0.000317635
0.000322865
0.000327957
0.000332891
0.000337648
0.000342209
0.00034656
0.000350693
0.000354601
0.000358281
0.00036173
0.000365952
0.000212009
0.000183687
0.000160615
0.000168992
0.000185288
0.000204044
0.000222481
0.000239297
0.000253935
0.00026634
0.000276755
0.000285566
0.000293185
0.000299979
0.000306238
0.000312165
0.000317884
0.000323463
0.000328925
0.000334268
0.000339478
0.000344531
0.000349407
0.000354086
0.000358553
0.000362798
0.000366815
0.000370597
0.000374144
0.000378495
0.000214162
0.000188189
0.000166828
0.000176375
0.000193642
0.000213216
0.000232297
0.000249588
0.000264553
0.00027717
0.000287717
0.000296608
0.00030428
0.000311118
0.000317423
0.000323404
0.000329188
0.000334843
0.000340391
0.000345829
0.000351139
0.000356296
0.000361278
0.000366063
0.000370635
0.000374982
0.000379097
0.000382974
0.00038661
0.000391084
0.000216646
0.000193023
0.000173545
0.000184419
0.000202732
0.00022314
0.000242841
0.000260563
0.0002758
0.000288572
0.000299193
0.000308112
0.000315789
0.000322629
0.000328943
0.000334945
0.000340766
0.000346472
0.000352084
0.000357597
0.00036299
0.000368236
0.00037331
0.000378188
0.000382853
0.000387292
0.000391495
0.000395458
0.000399176
0.000403766
0.000219475
0.000198209
0.000180795
0.000193173
0.000212621
0.000233884
0.000254184
0.00027229
0.000287744
0.00030061
0.000311247
0.000320139
0.000327774
0.000334571
0.000340855
0.000346845
0.000352673
0.000358405
0.000364059
0.000369627
0.000375085
0.000380404
0.000385555
0.000390513
0.000395259
0.000399779
0.000404062
0.000408102
0.000411893
0.000416592
0.000222665
0.000203771
0.000188609
0.000202688
0.000223374
0.000245521
0.000266401
0.000284847
0.000300459
0.000313358
0.000323951
0.00033276
0.000340299
0.00034701
0.000353224
0.000359167
0.000364972
0.000370703
0.000376375
0.000381977
0.000387482
0.000392856
0.00039807
0.000403095
0.00040791
0.000412499
0.000416851
0.000420958
0.000424814
0.000429615
0.000226237
0.000209736
0.000197021
0.000213019
0.000235065
0.000258134
0.000279578
0.000298319
0.000314029
0.000326896
0.000337382
0.000346049
0.000353441
0.000360017
0.00036612
0.000371979
0.000377729
0.000383431
0.000389097
0.000394711
0.000400242
0.000405655
0.000410916
0.000415993
0.000420865
0.000425512
0.000429922
0.000434087
0.000437998
0.000442895
0.000230211
0.000216132
0.000206068
0.000224226
0.000247771
0.00027181
0.000293807
0.000312798
0.000328545
0.000341315
0.000351628
0.00036009
0.000367279
0.00037367
0.000379618
0.000385356
0.000391017
0.000396659
0.000402293
0.000407896
0.000413435
0.000418868
0.000424159
0.000429274
0.000434188
0.000438881
0.000443339
0.00044755
0.000451508
0.000456492
0.000234612
0.000222994
0.000215791
0.000236369
0.000261575
0.000286646
0.000309191
0.000328387
0.00034411
0.000356712
0.000366783
0.000374977
0.000381902
0.000388056
0.000393803
0.000399378
0.000404914
0.000410467
0.00041604
0.000421609
0.000427132
0.000432566
0.00043787
0.000443008
0.00044795
0.000452676
0.000457169
0.000461418
0.000465412
0.000470476
0.000239468
0.000230355
0.000226231
0.000249515
0.000276567
0.000302746
0.000325839
0.0003452
0.000360835
0.000373199
0.000382955
0.000390811
0.000397411
0.000403271
0.000408766
0.000414135
0.000419509
0.000424938
0.000430422
0.00043593
0.000441415
0.00044683
0.000452129
0.000457272
0.000462228
0.000466973
0.000471489
0.000475763
0.000479783
0.00048492
0.000244808
0.000238256
0.000237435
0.000263733
0.000292842
0.000320222
0.000343874
0.000363361
0.000378844
0.000390894
0.00040026
0.000407706
0.000413912
0.000419419
0.000424609
0.000429725
0.000434896
0.000440166
0.00044553
0.000450949
0.000456372
0.000461746
0.00046702
0.000472151
0.000477105
0.000481855
0.000486382
0.000490668
0.000494703
0.000499905
0.000250665
0.000246738
0.000249452
0.000279098
0.000310501
0.000339197
0.000363429
0.000383008
0.000398274
0.000409934
0.000418828
0.000425786
0.000431528
0.000436615
0.000441444
0.000446257
0.000451181
0.000456254
0.000461464
0.000466765
0.0004721
0.00047741
0.000482639
0.00048774
0.000492675
0.000497415
0.000501937
0.000506224
0.000510262
0.000515521
0.000257075
0.000255848
0.000262335
0.000295685
0.000329652
0.000359801
0.000384649
0.00040429
0.000419275
0.000430464
0.000438802
0.000445189
0.000450389
0.000454989
0.000459395
0.000463851
0.000468481
0.000473316
0.000478336
0.000483487
0.000488707
0.000493927
0.000499089
0.00050414
0.000509039
0.000513752
0.000518257
0.000522531
0.000526561
0.000531868
0.000264079
0.000265636
0.000276142
0.000313575
0.000350408
0.000382175
0.00040769
0.000427373
0.000442015
0.00045265
0.000460342
0.00046607
0.000470645
0.000474683
0.000478598
0.00048264
0.000486924
0.000491477
0.000496268
0.000501237
0.00050631
0.000511416
0.000516487
0.000521467
0.000526311
0.000530982
0.000535452
0.0005397
0.000543708
0.000549056
0.000271718
0.000276154
0.000290933
0.000332852
0.000372888
0.000406469
0.000432724
0.000452437
0.000466676
0.000476672
0.000483624
0.000488597
0.000492459
0.000495853
0.000499208
0.000502771
0.000506655
0.000510877
0.000515398
0.000520148
0.000525044
0.000530006
0.000534962
0.00053985
0.000544618
0.000549228
0.00055365
0.000557856
0.000561829
0.000567209
0.000280041
0.000287461
0.000306773
0.000353602
0.000397215
0.000432841
0.000459934
0.00047968
0.000493461
0.000502731
0.000508842
0.000512961
0.000516014
0.000518677
0.000521392
0.000524409
0.000527833
0.000531673
0.000535879
0.00054037
0.000545055
0.000549844
0.000554658
0.00055943
0.000564103
0.000568633
0.000572988
0.000577138
0.000581063
0.000586466
0.000289098
0.000299619
0.000323728
0.000375915
0.000423518
0.000461461
0.000489518
0.000509317
0.00052259
0.000531047
0.000536215
0.000539372
0.000541513
0.00054335
0.000545341
0.000547737
0.000550637
0.00055404
0.000557882
0.000562072
0.000566508
0.000571093
0.000575737
0.000580367
0.000584923
0.000589354
0.000593624
0.000597702
0.000601563
0.000606983
0.000298946
0.000312692
0.00034187
0.000399881
0.000451928
0.000492505
0.00052169
0.000541583
0.000554307
0.000561866
0.000565982
0.000568063
0.000569181
0.000570091
0.000571267
0.000572961
0.000575267
0.000578171
0.000581597
0.000585441
0.00058959
0.000593935
0.00059838
0.000602842
0.000607256
0.000611568
0.000615735
0.000619723
0.000623506
0.000628933
0.000309645
0.000326753
0.000361274
0.00042559
0.000482578
0.000526157
0.000556674
0.000576728
0.000588879
0.000595456
0.000598409
0.000599294
0.000599271
0.000599143
0.000599404
0.00060031
0.000601946
0.000604285
0.000607239
0.000610688
0.000614507
0.000618575
0.000622788
0.000627055
0.000631303
0.000635472
0.000639517
0.000643398
0.000647087
0.000652514
0.000321263
0.000341877
0.000382014
0.000453134
0.0005156
0.000562604
0.000594709
0.000615026
0.000626594
0.000632113
0.000633791
0.000633353
0.000632064
0.000630779
0.000630019
0.000630041
0.000630924
0.000632628
0.000635047
0.000638048
0.000641492
0.000645245
0.000649191
0.000653233
0.000657288
0.000661291
0.000665192
0.000668948
0.000672526
0.000677946
0.00033387
0.000358142
0.000404168
0.000482598
0.000551122
0.000602036
0.000636041
0.000656766
0.000667768
0.000672162
0.000672453
0.000670561
0.00066787
0.000665303
0.000663405
0.000662442
0.000662482
0.000663472
0.000665291
0.000667787
0.000670806
0.000674201
0.000677844
0.000681628
0.000685462
0.000689276
0.000693011
0.000696622
0.000700072
0.000705478
0.000347548
0.000375635
0.000427813
0.000514064
0.000589265
0.000644638
0.000680926
0.000702254
0.000712737
0.000715955
0.000714752
0.000711271
0.000707038
0.000703051
0.000699892
0.000697832
0.000696933
0.000697127
0.000698273
0.000700202
0.000702742
0.000705733
0.000709034
0.000712526
0.00071611
0.000719707
0.000723254
0.0007267
0.000730004
0.000735388
0.000362381
0.000394444
0.000453023
0.000547602
0.000630134
0.000690589
0.000729616
0.000751807
0.000761862
0.000763876
0.000761077
0.000755873
0.000749952
0.000744402
0.000739847
0.000736571
0.000734628
0.000733934
0.000734329
0.000735625
0.00073763
0.000740168
0.000743084
0.000746247
0.000749548
0.000752901
0.000756235
0.000759495
0.000762634
0.000767992
0.000378465
0.000414661
0.000479869
0.00058327
0.000673818
0.000740046
0.000782359
0.000805749
0.00081552
0.000816334
0.000811855
0.000804795
0.000797034
0.000789769
0.000783677
0.000779057
0.000775958
0.000774278
0.000773839
0.000774428
0.000775836
0.000777869
0.000780354
0.000783149
0.000786134
0.000789213
0.000792309
0.00079536
0.000798315
0.000803641
0.000395901
0.000436383
0.000508416
0.000621107
0.000720374
0.000793138
0.000839382
0.0008644
0.000874101
0.000873762
0.00086754
0.0008585
0.000848748
0.000839613
0.000831835
0.000825735
0.000821358
0.000818588
0.000817223
0.000817029
0.000817774
0.000819243
0.000821249
0.000823635
0.000826267
0.000829041
0.000831871
0.00083469
0.00083744
0.00084273
0.000414797
0.0004597
0.000538718
0.000661132
0.000769822
0.00084995
0.000900878
0.000928063
0.000937997
0.00093661
0.000928617
0.00091749
0.0009056
0.000894436
0.000884816
0.000877092
0.00087131
0.000867337
0.00086495
0.000863889
0.000863899
0.000864745
0.000866221
0.000868151
0.000870393
0.000872829
0.000875365
0.000877927
0.000880452
0.000885701
0.000435259
0.000484679
0.00057082
0.00070334
0.000822127
0.000910509
0.000966985
0.000997002
0.00100758
0.00100533
0.000995589
0.000982293
0.000968131
0.000954781
0.000943162
0.000933665
0.000926344
0.00092105
0.000917538
0.000915522
0.000914722
0.00091488
0.000915769
0.000917198
0.000919009
0.000921072
0.000923284
0.000925563
0.000927841
0.000933048
0.000457391
0.000511355
0.000604751
0.000747704
0.00087719
0.000974759
0.00103776
0.00107142
0.00108319
0.00108037
0.00106897
0.00105346
0.00103691
0.00102123
0.00100746
0.000996037
0.000987038
0.000980301
0.000975555
0.000972492
0.000970803
0.000970205
0.00097045
0.000971328
0.000972665
0.000974319
0.000976177
0.000978147
0.000980154
0.00098532
0.000481314
0.000539777
0.000640516
0.000794134
0.00093483
0.00104254
0.00111314
0.00115142
0.00116509
0.00116211
0.00114924
0.00113155
0.00111254
0.0010944
0.00107832
0.00106483
0.00105402
0.00104571
0.00103962
0.00103542
0.00103276
0.00103133
0.00103087
0.00103115
0.00103197
0.00103318
0.00103465
0.00103628
0.001038
0.00104312
0.000507176
0.000570069
0.000678099
0.000842425
0.000994776
0.00111358
0.00119294
0.00123695
0.00125342
0.00125089
0.00123685
0.00121708
0.00119559
0.0011749
0.0011564
0.0011407
0.00112794
0.00111794
0.0011104
0.00110496
0.00110124
0.00109892
0.0010977
0.00109732
0.00109758
0.00109831
0.00109936
0.00110063
0.00110203
0.00110712
0.000535137
0.000602557
0.000717532
0.000892114
0.00105667
0.00118743
0.00127675
0.00132781
0.00134818
0.00134688
0.00133216
0.00131054
0.00128664
0.00126336
0.00124234
0.00122432
0.00120949
0.00119769
0.00118859
0.00118182
0.00117697
0.00117368
0.00117164
0.00117056
0.00117021
0.00117042
0.00117103
0.00117191
0.00117298
0.00117804
0.000565323
0.000637
0.000758487
0.000943131
0.00112008
0.0012635
0.00136396
0.00142349
0.00144912
0.00145007
0.00143535
0.00141228
0.00138614
0.00136032
0.00133675
0.00131635
0.00129936
0.00128566
0.00127492
0.00126673
0.00126068
0.00125636
0.00125344
0.00125161
0.00125063
0.00125028
0.00125042
0.00125089
0.0012516
0.00125666
0.000597844
0.000673149
0.000800567
0.000995378
0.00118449
0.001341
0.00145372
0.00152324
0.00155566
0.00156018
0.0015464
0.00152249
0.00149446
0.00146626
0.00144019
0.00141738
0.00139819
0.00138253
0.00137008
0.00136042
0.00135311
0.00134771
0.00134387
0.00134126
0.0013396
0.00133868
0.00133832
0.00133837
0.00133872
0.00134379
0.000632902
0.000711488
0.000843698
0.00104806
0.0012492
0.00141898
0.00154491
0.00162594
0.00166688
0.00167654
0.00166494
0.00164105
0.00161169
0.00158144
0.00155305
0.00152792
0.00150655
0.00148892
0.00147474
0.00146358
0.00145497
0.00144847
0.00144368
0.00144026
0.00143791
0.0014364
0.00143553
0.00143514
0.00143513
0.00144025
0.000670732
0.000752023
0.000887629
0.00110068
0.00131346
0.00149633
0.00163618
0.00173013
0.0017814
0.00179804
0.00179018
0.00176749
0.00173762
0.00170587
0.00167551
0.00164826
0.00162483
0.0016053
0.00158943
0.00157678
0.00156688
0.00155928
0.00155355
0.00154932
0.00154628
0.00154419
0.00154281
0.001542
0.00154163
0.00154684
0.000711603
0.000794829
0.00093227
0.00115273
0.00137632
0.00157186
0.00172599
0.00183401
0.0018974
0.00192303
0.00192079
0.00190082
0.00187158
0.00183915
0.00180737
0.00177839
0.00175317
0.00173193
0.00171448
0.00170043
0.00168931
0.00168066
0.00167402
0.00166902
0.00166533
0.00166267
0.00166082
0.00165959
0.00165891
0.00166428
0.000755809
0.000839964
0.000977936
0.00120384
0.00143654
0.00164437
0.00181272
0.00193557
0.00201264
0.00204932
0.00205481
0.00203944
0.00201233
0.00198035
0.001948
0.00191789
0.00189131
0.00186868
0.0018499
0.00183464
0.00182245
0.00181285
0.00180541
0.00179971
0.00179543
0.00179227
0.00179
0.00178841
0.00178746
0.00179309
0.000803601
0.000887434
0.00102381
0.00125345
0.00149394
0.00171281
0.0018948
0.00203267
0.00212458
0.00217423
0.00218968
0.00218105
0.00215792
0.00212786
0.00209608
0.00206573
0.00203847
0.00201495
0.00199524
0.00197907
0.00196605
0.00195572
0.00194763
0.00194138
0.00193663
0.00193307
0.00193047
0.00192861
0.00192748
0.00193347
0.000855241
0.000937226
0.00106949
0.0013011
0.00154833
0.00177632
0.00197086
0.00212331
0.0022306
0.00229472
0.00232226
0.00232265
0.00230562
0.0022793
0.00224957
0.00222015
0.00219312
0.00216945
0.00214939
0.00213279
0.00211931
0.00210855
0.00210008
0.00209349
0.00208845
0.00208465
0.00208185
0.00207983
0.00207866
0.00208516
0.000911332
0.000989402
0.00111604
0.00134741
0.00159893
0.00183432
0.00203996
0.00220583
0.00232826
0.00240771
0.00244907
0.00246068
0.00245199
0.00243147
0.00240555
0.00237852
0.00235293
0.00233007
0.00231043
0.00229404
0.00228064
0.00226988
0.00226137
0.00225475
0.00224968
0.00224586
0.00224304
0.00224104
0.00224
0.00224719
0.000972283
0.00104416
0.00116292
0.00139191
0.00164636
0.00188724
0.00210172
0.00227918
0.00241568
0.00251044
0.00256667
0.00259129
0.00259307
0.00258046
0.00256028
0.00253732
0.00251458
0.00249372
0.0024755
0.00246012
0.00244746
0.00243726
0.0024292
0.00242293
0.00241815
0.00241459
0.00241201
0.00241023
0.00240954
0.00241761
0.00100089
0.00110117
0.00121125
0.00143589
0.00169107
0.00193548
0.00215639
0.00234312
0.00249182
0.00260091
0.00267211
0.0027108
0.00272471
0.00272193
0.00270939
0.00269224
0.0026739
0.00265637
0.0026407
0.00262728
0.00261617
0.0026072
0.00260013
0.00259468
0.00259058
0.00258761
0.00258554
0.00258423
0.00258415
0.00259331
0.000984594
0.00111396
0.00126043
0.00147846
0.00173486
0.00198049
0.00220499
0.00239831
0.00255672
0.00267824
0.00276345
0.00281628
0.00284321
0.00285163
0.00284831
0.00283857
0.0028261
0.00281323
0.00280126
0.00279082
0.0027821
0.00277508
0.0027696
0.00276547
0.00276248
0.00276043
0.00275915
0.00275857
0.00275937
0.0027698
0.000968756
0.00109355
0.00131214
0.00152308
0.00177857
0.00202382
0.00224919
0.00244638
0.00261162
0.00274292
0.0028402
0.00290614
0.00294597
0.00296615
0.00297301
0.00297179
0.00296637
0.00295927
0.00295203
0.00294546
0.00293993
0.00293552
0.00293221
0.00292986
0.00292834
0.00292752
0.00292728
0.00292763
0.00292955
0.00294133
0.00095359
0.00107187
0.00136536
0.001567
0.00182408
0.00206734
0.00229144
0.00248982
0.0026589
0.00279695
0.00290358
0.00298062
0.00303215
0.00306363
0.00308076
0.00308851
0.00309072
0.00309006
0.00308822
0.00308617
0.00308439
0.00308311
0.00308236
0.00308212
0.00308233
0.00308292
0.00308385
0.00308526
0.00308841
0.00310151
0.000939232
0.00104926
0.00134056
0.0016183
0.0018731
0.00211354
0.00233506
0.0025319
0.00270191
0.00284357
0.00295648
0.00304192
0.00310307
0.00314447
0.00317105
0.00318737
0.0031971
0.00320294
0.00320665
0.00320932
0.00321152
0.00321354
0.00321553
0.00321751
0.0032195
0.0032215
0.00322357
0.003226
0.00323036
0.00324456
0.000925804
0.00102686
0.00130938
0.00166925
0.00192748
0.00216472
0.00238237
0.00257615
0.0027447
0.00288708
0.00300319
0.00309404
0.00316222
0.00321146
0.00324595
0.0032697
0.00328614
0.00329789
0.00330677
0.00331388
0.00331987
0.00332507
0.00332965
0.0033337
0.00333731
0.00334054
0.00334354
0.0033468
0.00335217
0.00336706
0.000913521
0.00100458
0.00127443
0.00168244
0.00198722
0.00222398
0.00243665
0.00262637
0.00279155
0.00293233
0.00304892
0.00314233
0.0032148
0.00326953
0.00330998
0.00333956
0.0033614
0.00337802
0.00339121
0.00340213
0.00341139
0.00341934
0.00342616
0.00343196
0.00343685
0.00344098
0.00344461
0.0034484
0.00345443
0.00346952
0.000902373
0.000983331
0.00123876
0.00164564
0.00202393
0.00229314
0.00250157
0.00268557
0.00284601
0.00298378
0.00309898
0.00319259
0.00326687
0.00332483
0.00336929
0.00340299
0.0034287
0.00344888
0.00346534
0.00347921
0.00349109
0.00350127
0.00350987
0.00351701
0.00352282
0.00352749
0.00353141
0.00353542
0.00354173
0.00355651
0.000892368
0.000963012
0.00120242
0.00160582
0.00198818
0.00231379
0.00257926
0.00275843
0.00291265
0.0030458
0.00315808
0.00325017
0.00332437
0.00338384
0.00343069
0.00346689
0.00349491
0.00351728
0.00353591
0.0035519
0.00356575
0.00357763
0.00358762
0.00359575
0.00360215
0.00360707
0.003611
0.00361495
0.00362119
0.00363521
0.000883542
0.000943814
0.00116565
0.00156489
0.00194774
0.00227599
0.00256837
0.00281748
0.00299605
0.00312337
0.00323133
0.00331984
0.00339213
0.00345199
0.00350025
0.00353769
0.00356662
0.00358997
0.0036098
0.00362716
0.00364239
0.00365555
0.00366655
0.00367536
0.00368208
0.00368699
0.00369067
0.00369428
0.0037001
0.00371296
0.000875912
0.000925918
0.00112861
0.00151432
0.00190273
0.00223418
0.00253002
0.00278299
0.0029956
0.00317255
0.00331984
0.0034079
0.00347576
0.00353409
0.00358229
0.00361936
0.00364782
0.00367132
0.00369193
0.00371036
0.00372673
0.00374096
0.00375289
0.00376234
0.00376931
0.00377406
0.00377728
0.00378028
0.00378534
0.00379671
0.000869484
0.000909522
0.00109218
0.00145988
0.00185376
0.00219032
0.00248879
0.00274446
0.00295987
0.00313947
0.0032897
0.00341491
0.00351917
0.00360656
0.00367985
0.00371929
0.00374474
0.00376676
0.00378698
0.00380537
0.00382186
0.00383638
0.00384881
0.00385881
0.00386601
0.00387049
0.00387307
0.00387523
0.00387923
0.00388877
0.000864247
0.000894776
0.00105704
0.00140216
0.00180249
0.00214465
0.00244507
0.00270301
0.00292087
0.00310266
0.00325495
0.00338205
0.00348814
0.00357677
0.00365083
0.00371321
0.00376581
0.00381019
0.00384762
0.00387924
0.00390599
0.00392868
0.00394794
0.00396433
0.00397728
0.00398076
0.00398145
0.00398205
0.00398448
0.00399169
0.000860172
0.000881652
0.00102354
0.00135334
0.00174976
0.00209757
0.00239907
0.00265879
0.00287887
0.00306279
0.00321693
0.00334562
0.00345308
0.0035429
0.00361808
0.00368108
0.00373397
0.00377864
0.00381641
0.00384837
0.00387541
0.00389835
0.00391782
0.00393439
0.00394853
0.00396061
0.00397095
0.00397983
0.00398746
0.00399404
0.000857231
0.000870186
0.000991433
0.00130429
0.0017032
0.00205044
0.00235096
0.00261196
0.00283402
0.00302
0.00317589
0.00330608
0.00341482
0.00350571
0.00358179
0.00364557
0.00369913
0.0037442
0.00378218
0.00381435
0.00384162
0.00386474
0.00388438
0.0039011
0.00391535
0.00392753
0.00393796
0.00394691
0.0039546
0.00396123
0.000855388
0.000860456
0.000961079
0.00125401
0.00165447
0.0020038
0.00230081
0.00256255
0.00278639
0.00297441
0.00313201
0.00326368
0.00337367
0.0034656
0.00354254
0.00360703
0.00366118
0.00370674
0.00374516
0.00377762
0.0038051
0.00382844
0.00384828
0.00386516
0.00387953
0.0038918
0.00390231
0.00391132
0.00391908
0.00392576
0.000854592
0.000852497
0.000932843
0.00120278
0.00159322
0.00194647
0.00224597
0.00250979
0.00273576
0.00292595
0.0030853
0.0032185
0.00332977
0.00342278
0.00350059
0.00356579
0.00362051
0.00366653
0.00370531
0.00373806
0.00376578
0.00378932
0.00380934
0.00382642
0.00384099
0.00385344
0.0038641
0.00387324
0.00388109
0.00388785
0.000854782
0.000846314
0.000907135
0.00115231
0.00152703
0.00188235
0.00218735
0.00245384
0.00268209
0.00287456
0.00303572
0.00317051
0.00328314
0.00337726
0.00345599
0.00352194
0.00357726
0.00362374
0.00366289
0.00369591
0.00372381
0.00374746
0.00376753
0.00378459
0.00379913
0.00381155
0.00382218
0.00383129
0.00383911
0.00384584
0.000855891
0.000841869
0.000884043
0.0011032
0.00145654
0.00182256
0.00212735
0.00239522
0.00262544
0.00282018
0.00298314
0.00311967
0.00323374
0.00332904
0.00340875
0.00347548
0.00353145
0.00357846
0.00361803
0.00365139
0.00367957
0.00370343
0.00372366
0.00374086
0.00375549
0.00376798
0.00377865
0.00378779
0.00379564
0.00380238
0.000857851
0.000839133
0.000863793
0.00105595
0.00139449
0.001766
0.00206634
0.00233408
0.0025659
0.00276277
0.0029276
0.00306594
0.00318151
0.00327806
0.00335878
0.00342636
0.00348301
0.00353059
0.00357062
0.00360436
0.00363285
0.00365696
0.00367741
0.00369478
0.00370956
0.00372217
0.00373294
0.00374217
0.00375009
0.0037569
0.000860583
0.000838056
0.000846632
0.00101035
0.00133012
0.00169748
0.00200289
0.00227021
0.0025034
0.00270227
0.00286916
0.0030093
0.00312641
0.00322425
0.00330604
0.0033745
0.00343187
0.00348004
0.00352055
0.00355469
0.00358351
0.00360789
0.00362856
0.00364611
0.00366105
0.00367378
0.00368467
0.00369398
0.00370198
0.00370885
0.000863999
0.000838552
0.000832834
0.000967537
0.00126521
0.0016234
0.00193976
0.00220453
0.00243838
0.00263891
0.00280784
0.00294973
0.0030684
0.00316757
0.00325047
0.00331984
0.00337797
0.00342675
0.00346777
0.00350232
0.00353147
0.00355613
0.00357703
0.00359477
0.00360987
0.00362273
0.00363372
0.00364313
0.0036512
0.00365813
0.000868001
0.000840481
0.000822477
0.000928328
0.00120102
0.00155823
0.00186874
0.00213445
0.0023699
0.00257236
0.00274345
0.00288713
0.00300741
0.00310796
0.00319202
0.00326234
0.00332125
0.00337068
0.00341222
0.0034472
0.00347671
0.00350165
0.00352279
0.00354072
0.00355597
0.00356896
0.00358006
0.00358955
0.00359769
0.00360469
0.000872485
0.000843669
0.000815484
0.000893168
0.0011363
0.00147885
0.00178827
0.00205995
0.00229793
0.00250256
0.0026759