/*--------------------------------*- C++ -*----------------------------------*\
| =========                 |                                                 |
| \\      /  F ield         | OpenFOAM: The Open Source CFD Toolbox           |
|  \\    /   O peration     | Version:  2312                                  |
|   \\  /    A nd           | Website:  www.openfoam.com                      |
|    \\/     M anipulation  |                                                 |
\*---------------------------------------------------------------------------*/
FoamFile
{
    version     2.0;
    format      ascii;
    arch        "LSB;label=32;scalar=64";
    class       volScalarField;
    location    "20000";
    object      omega;
}
// * * * * * * * * * * * * * * * * * * * * * * * * * * * * * * * * * * * * * //

dimensions      [0 0 -1 0 0 0 0];

internalField   nonuniform List<scalar> 
29400
(
580037
580090
580173
580267
580363
580452
580530
580597
580653
580700
580738
580771
580798
580820
580839
580855
580868
580880
580890
580899
580906
580913
580918
580923
580927
580931
580935
580938
580940
580943
91296.4
92380.4
93777.1
95000.5
96329.5
97660.4
98954.8
100175
101302
102330
103257
104089
104833
105496
106085
106608
107073
107485
107851
108176
108465
108722
108951
109155
109338
109501
109648
109781
109900
110013
25488.8
26339
27529.4
28371.1
29133.2
29840.1
30516.3
31165.4
31787.2
32380.7
32944.2
33476.2
33975.6
34441.4
34873.6
35272.4
35638.7
35973.9
36279.7
36558.1
36811
37040.5
37248.6
37437.3
37608.3
37763.4
37904
38031.7
38147.6
38256.2
10690
11398.7
12612.4
13367.1
13936.6
14404.1
14818.2
15201.1
15563.9
15911.8
16246.5
16567.6
16873.8
17163.5
17435.2
17687.9
17921.2
18135
18330
18506.9
18667
18811.3
18941.4
19058.4
19163.5
19258.1
19343.2
19419.5
19488
19549.7
6127.92
6699.43
7683.92
8387.47
8906.96
9314.79
9659.69
9967.29
10251.6
10520
10776
11020.8
11254.2
11475.3
11683.4
11877.5
12057.2
12222.4
12373.4
12510.7
12635
12747.2
12848.4
12939.4
13021.2
13094.7
13160.8
13220.2
13273.6
13321.6
4180.19
4586.08
5467
6143.69
6639.52
7020.78
7335.62
7610.88
7861.7
8096.37
8319.09
8531.6
8734.17
8926.31
9107.27
9276.35
9433.07
9577.28
9709.13
9829
9937.52
10035.4
10123.6
10202.8
10274
10337.8
10395.1
10446.5
10492.7
10534.3
3120.1
3450.25
4326.56
4986.83
5461.4
5820.02
6111.89
6364.76
6594.28
6809.02
7013.28
7208.76
7395.65
7573.34
7740.94
7897.63
8042.84
8176.31
8298.11
8408.54
8508.23
8597.89
8678.34
8750.37
8814.81
8872.42
8923.91
8969.94
9011.12
9047.9
2491.44
2821.24
3691.53
4331.6
4786.37
5127.16
5402.86
5641.09
5857.46
6060.48
6254.33
6440.56
6619.18
6789.4
6950.2
7100.61
7239.96
7367.93
7484.53
7590.09
7685.15
7770.41
7846.65
7914.68
7975.3
8029.28
8077.34
8120.12
8158.23
8191.98
2117.44
2454.19
3297.13
3910.29
4345.59
4671.98
4936.33
5165.24
5373.8
5570.2
5758.4
5939.79
6114.22
6280.77
6438.28
6585.71
6722.31
6847.7
6961.87
7065.11
7157.96
7241.09
7315.29
7381.36
7440.1
7492.27
7538.6
7579.74
7616.27
7648.47
1886.78
2220.32
3018.13
3598.97
4014.41
4328.15
4583.86
4806.5
5010.28
5202.92
5388.11
5567.04
5739.42
5904.24
6060.28
6206.42
6341.87
6466.22
6579.43
6681.78
6773.78
6856.12
6929.56
6994.89
7052.93
7104.42
7150.1
7190.62
7226.55
7258.16
1733.64
2053.76
2796.54
3341.98
3736.99
4038.6
4286.73
4504.37
4704.68
4894.81
5078.1
5255.56
5426.78
5590.68
5745.97
5891.51
6026.48
6150.44
6263.33
6365.43
6457.23
6539.4
6612.7
6677.92
6735.86
6787.27
6832.88
6873.32
6909.19
6940.76
1621.72
1922.16
2606.53
3115.5
3489.64
3779.01
4019.64
4232.44
4429.48
4617.27
4798.83
4974.94
5145.09
5308.12
5462.72
5607.72
5742.27
5865.93
5978.61
6080.59
6172.34
6254.52
6327.87
6393.18
6451.23
6502.77
6548.52
6589.12
6625.14
6656.9
1531.93
1810.29
2436.9
2909.66
3262.76
3539.57
3772.35
3979.95
4173.35
4358.45
4537.9
4712.3
4881.03
5042.86
5196.45
5340.62
5474.49
5597.61
5709.9
5811.59
5903.16
5985.23
6058.56
6123.89
6182.02
6233.68
6279.56
6320.32
6356.52
6388.49
1454.78
1711.14
2282.68
2720.22
3052.38
3316.36
3540.84
3742.74
3931.95
4113.8
4290.58
4462.72
4629.49
4789.62
4941.72
5084.61
5217.39
5339.61
5451.16
5552.26
5643.37
5725.11
5798.19
5863.37
5921.41
5973.03
6018.93
6059.74
6096.02
6128.13
1385.74
1621.41
2141.39
2545.11
2856.63
3107.62
3323.43
3519.13
3703.61
3881.63
4055.17
4224.48
4388.74
4546.63
4696.75
4837.88
4969.14
5090.04
5200.47
5300.64
5390.98
5472.09
5544.67
5609.46
5667.19
5718.59
5764.33
5805.03
5841.25
5873.38
1322.61
1539.33
2011.54
2383.04
2674.4
2912.36
3119.21
3308.31
3487.6
3661.28
3831.06
3997.01
4158.25
4313.41
4461.07
4600.01
4729.32
4848.53
4957.49
5056.39
5145.65
5225.85
5297.67
5361.83
5419.05
5470.03
5515.43
5555.85
5591.87
5623.87
1264.27
1463.8
1892.05
2233.06
2504.85
2729.85
2927.56
3109.74
3283.43
3452.34
3617.91
3780.06
3937.83
4089.83
4234.63
4370.97
4497.98
4615.14
4722.31
4819.64
4907.55
4986.59
5057.42
5120.73
5177.23
5227.61
5272.5
5312.5
5348.16
5379.9
1210.01
1394.06
1782.05
2094.38
2347.26
2559.46
2747.93
2922.94
3090.71
3254.49
3415.46
3573.42
3727.34
3875.81
4017.37
4150.8
4275.17
4389.99
4495.07
4590.59
4676.9
4754.56
4824.18
4886.46
4942.07
4991.67
5035.9
5075.34
5110.52
5141.89
1159.35
1329.5
1680.8
1966.27
2201.01
2400.64
2579.81
2747.47
2909.06
3067.41
3223.45
3376.88
3526.62
3671.22
3809.24
3939.44
4060.9
4173.1
4275.87
4369.32
4453.83
4529.9
4598.14
4659.21
4713.78
4762.47
4805.91
4844.67
4879.26
4910.14
1111.94
1269.62
1587.62
1848.09
2065.5
2252.84
2422.74
2582.92
2738.11
2890.76
3041.59
3190.2
3335.45
3475.91
3610.11
3736.81
3855.11
3964.46
4064.68
4155.88
4238.39
4312.7
4379.4
4439.12
4492.49
4540.15
4582.68
4620.65
4654.55
4684.85
1067.49
1213.99
1501.91
1739.22
1940.16
2115.55
2276.25
2428.86
2577.49
2724.22
2869.6
3013.13
3153.64
3289.69
3419.82
3542.79
3657.7
3764
3861.48
3950.23
4030.57
4102.96
4167.97
4226.19
4278.26
4324.77
4366.29
4403.36
4436.49
4466.12
1025.76
1162.27
1423.12
1639.1
1824.46
1988.29
2139.89
2284.88
2426.82
2567.45
2707.17
2845.4
2980.95
3112.36
3238.2
3357.24
3468.55
3571.6
3666.16
3752.3
3830.31
3900.64
3963.83
4020.44
4071.08
4116.34
4156.75
4192.85
4225.12
4254.01
986.54
1114.15
1350.75
1547.17
1717.88
1870.56
2013.21
2150.59
2285.74
2420.13
2554.02
2686.75
2817.14
2943.73
3065.08
3179.99
3287.53
3387.16
3478.63
3562.01
3637.56
3705.7
3766.93
3821.82
3870.94
3914.84
3954.06
3989.1
4020.44
4048.51
949.664
1069.34
1284.32
1462.92
1619.9
1761.89
1895.77
2025.57
2153.88
2281.92
2409.83
2536.92
2661.98
2783.57
2900.27
3010.88
3114.49
3210.54
3298.79
3379.27
3452.22
3518.05
3577.23
3630.29
3677.79
3720.25
3758.2
3792.11
3822.44
3849.63
914.983
1027.63
1223.4
1385.84
1530.03
1661.82
1787.15
1909.43
2030.87
2152.49
2274.32
2395.64
2515.23
2631.67
2743.58
2849.75
2949.29
3041.63
3126.52
3203.98
3274.22
3337.63
3394.65
3445.79
3491.58
3532.53
3569.13
3601.84
3631.11
3657.35
882.368
988.786
1167.58
1315.46
1447.79
1569.87
1686.9
1801.76
1916.34
2031.5
2147.18
2262.62
2376.64
2487.83
2594.82
2696.43
2791.78
2880.29
2961.71
3036.04
3103.48
3164.37
3219.14
3268.28
3312.29
3351.64
3386.83
3418.28
3446.42
3471.66
851.705
952.634
1116.48
1251.32
1372.71
1485.6
1594.6
1702.17
1809.94
1918.63
2028.1
2137.61
2245.98
2351.82
2453.79
2550.75
2641.8
2726.39
2804.25
2875.36
2939.9
2998.19
3050.64
3097.71
3139.86
3177.56
3211.27
3241.4
3268.37
3292.56
822.89
919.002
1069.75
1192.98
1304.32
1408.56
1509.83
1610.26
1711.3
1813.53
1916.8
2020.34
2123
2223.43
2320.32
2412.54
2499.23
2579.81
2654.03
2721.84
2783.41
2839.03
2889.09
2934.02
2974.25
3010.25
3042.43
3071.2
3096.95
3120.04
795.831
887.735
1027.07
1140
1242.18
1338.3
1432.16
1525.65
1620.05
1715.89
1812.96
1910.53
2007.45
2102.44
2194.2
2281.63
2363.89
2440.42
2510.93
2575.39
2633.93
2686.82
2734.44
2777.17
2815.44
2849.68
2880.3
2907.66
2932.15
2954.1
770.444
858.693
988.133
1092.01
1185.87
1274.4
1361.18
1447.94
1535.85
1625.36
1716.3
1807.91
1899.11
1988.64
2075.25
2157.86
2235.66
2308.08
2374.85
2435.9
2491.37
2541.49
2586.62
2627.12
2663.39
2695.84
2724.85
2750.77
2773.97
2794.75
746.651
831.747
952.65
1048.6
1134.94
1216.43
1296.49
1376.75
1458.32
1541.64
1626.5
1712.22
1797.72
1881.81
1963.27
2041.06
2114.38
2182.68
2245.67
2303.3
2355.66
2402.98
2445.58
2483.82
2518.06
2548.69
2576.07
2600.53
2622.41
2641.99
724.378
806.778
920.359
1009.43
1089.02
1163.99
1237.69
1311.71
1387.14
1464.39
1543.29
1623.18
1703.05
1781.73
1858.07
1931.05
1999.9
2064.07
2123.28
2177.47
2226.71
2271.21
2311.28
2347.23
2379.43
2408.22
2433.95
2456.93
2477.47
2495.84
703.556
783.673
891.014
974.137
1047.7
1116.68
1184.39
1252.45
1321.94
1393.29
1466.36
1540.54
1614.85
1688.19
1759.46
1827.66
1892.06
1952.12
2007.57
2058.32
2104.44
2146.13
2183.65
2217.32
2247.46
2274.4
2298.47
2319.96
2339.15
2356.29
684.119
762.326
864.388
942.414
1010.63
1074.11
1136.22
1198.61
1262.39
1328.03
1395.43
1464.01
1532.88
1600.97
1667.23
1730.73
1790.72
1846.71
1898.41
1945.74
1988.76
2027.64
2062.63
2094.02
2122.1
2147.2
2169.61
2189.61
2207.45
2223.35
666.005
742.64
840.268
913.957
977.447
1035.93
1092.81
1149.83
1208.15
1268.3
1330.2
1393.35
1456.9
1519.85
1581.2
1640.05
1695.71
1747.68
1795.69
1839.64
1879.59
1915.69
1948.16
1977.28
2003.33
2026.6
2047.35
2065.86
2082.36
2097.03
649.151
724.519
818.458
888.482
947.829
1001.79
1053.82
1105.78
1158.91
1213.78
1270.39
1328.27
1386.65
1444.59
1501.15
1555.46
1606.87
1654.89
1699.27
1739.9
1776.82
1810.17
1840.17
1867.05
1891.09
1912.54
1931.66
1948.7
1963.87
1977.32
633.498
707.872
798.773
865.728
921.465
971.342
1018.9
1066.13
1114.34
1164.18
1215.7
1268.51
1321.9
1374.99
1426.88
1476.77
1524.03
1568.19
1609.01
1646.39
1680.34
1711
1738.56
1763.25
1785.31
1804.98
1822.5
1838.09
1851.94
1864.18
618.988
692.615
781.046
845.45
898.064
944.285
987.742
1030.55
1074.14
1119.2
1165.87
1213.82
1262.4
1310.79
1358.17
1403.78
1447
1487.42
1524.78
1558.98
1590.04
1618.07
1643.26
1665.8
1685.92
1703.85
1719.81
1733.98
1746.54
1757.6
605.562
678.664
765.117
827.423
877.356
920.321
960.032
998.75
1037.99
1078.55
1120.61
1163.92
1207.89
1251.78
1294.82
1336.28
1375.61
1412.4
1446.41
1477.53
1505.78
1531.27
1554.15
1574.61
1592.85
1609.09
1623.51
1636.3
1647.6
1657.51
593.165
665.939
750.84
811.439
859.089
899.174
935.483
970.425
1005.62
1041.94
1079.65
1118.55
1158.14
1197.72
1236.59
1274.09
1309.67
1342.97
1373.74
1401.89
1427.43
1450.46
1471.11
1489.55
1505.98
1520.58
1533.52
1544.98
1555.06
1563.86
581.739
654.365
738.081
797.304
843.032
880.584
913.822
945.299
976.744
1009.11
1042.72
1077.46
1112.89
1148.38
1183.28
1216.97
1248.97
1278.92
1306.59
1331.89
1354.84
1375.5
1394
1410.51
1425.2
1438.22
1449.74
1459.91
1468.82
1476.55
571.23
643.867
726.712
784.843
828.971
864.312
894.794
923.109
951.092
979.773
1009.56
1040.39
1071.89
1103.5
1134.64
1164.73
1193.31
1220.07
1244.78
1267.36
1287.82
1306.22
1322.68
1337.34
1350.36
1361.87
1372.04
1380.97
1388.77
1395.47
561.583
634.375
716.617
773.893
816.707
850.136
878.157
903.602
928.409
953.687
979.911
1007.09
1034.9
1062.87
1090.44
1117.12
1142.47
1166.2
1188.11
1208.11
1226.21
1242.46
1256.98
1269.88
1281.31
1291.39
1300.26
1308.02
1314.75
1320.49
552.743
625.819
707.689
764.305
806.062
837.851
863.689
886.544
908.452
930.599
953.526
977.299
1001.67
1026.22
1050.46
1073.93
1096.24
1117.11
1136.37
1153.93
1169.8
1184.03
1196.7
1207.94
1217.87
1226.6
1234.24
1240.89
1246.62
1251.44
544.658
618.137
699.828
755.943
796.87
827.266
851.182
871.712
890.988
910.271
930.162
950.789
971.966
993.33
1014.45
1034.91
1054.37
1072.56
1089.33
1104.61
1118.38
1130.7
1141.65
1151.33
1159.84
1167.3
1173.79
1179.4
1184.18
1188.16
537.271
611.277
692.955
748.683
788.981
818.21
840.444
858.899
875.8
892.476
909.587
927.318
945.542
963.954
982.177
999.843
1016.64
1032.33
1046.78
1059.91
1071.73
1082.27
1091.6
1099.82
1107.02
1113.28
1118.7
1123.33
1127.24
1130.43
530.514
605.203
687.038
742.419
782.258
810.524
831.296
847.911
862.68
876.996
891.575
906.655
922.165
937.856
953.402
968.478
982.806
996.181
1008.47
1019.62
1029.62
1038.5
1046.33
1053.19
1059.16
1064.32
1068.73
1072.47
1075.56
1078.03
524.298
599.822
682.043
737.066
776.577
804.062
823.575
838.569
851.436
863.628
875.913
888.579
901.608
914.803
927.887
940.578
952.631
963.865
974.163
983.473
991.788
999.141
1005.59
1011.19
1016.03
1020.16
1023.66
1026.56
1028.91
1030.71
518.544
594.955
677.855
732.546
771.823
798.694
817.132
830.707
841.886
852.177
862.394
872.874
883.647
894.565
905.398
915.904
925.87
935.138
943.607
951.228
957.998
963.944
969.114
973.566
977.361
980.558
983.209
985.355
987.025
988.231
513.197
590.435
674.261
728.776
767.896
794.301
811.828
824.171
833.862
842.461
850.825
859.336
868.068
876.919
885.705
894.219
902.282
909.755
916.551
922.63
927.988
932.648
936.652
940.051
942.896
945.238
947.12
948.577
949.634
950.303
508.216
586.431
671.428
725.508
764.702
790.778
807.539
818.819
827.208
834.31
841.023
847.768
854.663
861.649
868.582
875.291
881.626
887.469
892.746
897.423
901.497
904.988
907.934
910.376
912.359
913.926
915.113
915.949
916.458
916.65
503.537
582.683
669.302
722.792
762.188
788.035
804.155
814.526
821.781
827.566
832.815
837.985
843.236
848.547
853.811
858.893
863.668
868.038
871.942
875.352
878.265
880.701
882.691
884.27
885.476
886.345
886.909
887.191
887.212
886.983
499.017
578.782
667.067
720.749
760.318
785.992
801.578
811.178
817.453
822.084
826.041
829.815
833.6
837.413
841.183
844.806
848.18
851.227
853.897
856.167
858.038
859.526
860.657
861.462
861.973
862.219
862.227
862.018
861.609
861.012
494.531
574.967
664.962
719.119
759.04
784.578
799.724
808.675
814.106
817.734
820.557
823.097
825.582
828.063
830.501
832.82
834.943
836.807
838.374
839.626
840.565
841.206
841.571
841.686
841.579
841.273
840.791
840.15
839.365
838.448
489.996
571.208
662.98
717.766
758.303
783.733
798.523
806.934
811.642
814.4
816.231
817.685
819.022
820.323
821.58
822.741
823.751
824.563
825.149
825.496
825.607
825.496
825.182
824.687
824.034
823.242
822.329
821.311
820.2
819.007
485.35
567.454
661.089
716.559
758.083
783.402
797.916
805.885
809.974
811.981
812.948
813.451
813.777
814.038
814.249
814.386
814.412
814.293
814.011
813.557
812.937
812.163
811.25
810.219
809.086
807.869
806.582
805.238
803.846
802.418
480.534
563.647
659.544
716.35
758.454
783.704
797.922
805.472
809.033
810.392
810.609
810.28
809.72
809.065
808.357
807.592
806.75
805.812
804.765
803.607
802.344
800.987
799.551
798.05
796.5
794.915
793.304
791.679
790.048
788.419
475.482
559.715
658.046
716.037
758.818
784.278
798.468
805.676
808.759
809.565
809.13
808.075
806.74
805.283
803.769
802.212
800.608
798.95
797.234
795.46
793.635
791.77
789.877
787.969
786.057
784.153
782.265
780.401
778.566
776.768
470.125
555.596
656.303
715.065
759.613
785.231
799.411
806.397
809.111
809.44
808.442
806.754
804.742
802.585
800.365
798.115
795.845
793.558
791.257
788.947
786.634
784.327
782.039
779.778
777.556
775.379
773.255
771.187
769.18
767.24
464.38
551.236
654.815
715.519
761.333
786.51
800.787
807.624
810.039
809.966
808.477
806.247
803.646
800.878
798.042
795.188
792.338
789.504
786.694
783.917
781.182
778.494
775.865
773.302
770.814
768.404
766.078
763.838
761.686
759.627
458.156
546.548
653.246
716.078
762.764
788.078
802.583
809.336
811.521
811.103
809.185
806.477
803.378
800.086
796.71
793.332
789.978
786.669
783.419
780.238
777.136
774.122
771.201
768.38
765.664
763.057
760.56
758.175
755.901
753.742
451.337
541.459
651.622
717.211
764.288
789.907
804.781
811.504
813.522
812.821
810.545
807.417
803.858
800.113
796.288
792.462
788.668
784.949
781.319
777.791
774.376
771.08
767.91
764.869
761.96
759.184
756.542
754.034
751.657
749.414
443.932
535.811
649.585
716.326
765.901
792.616
807.368
814.1
816.012
815.089
812.514
809.029
805.075
800.909
796.677
792.471
788.315
784.249
780.294
776.467
772.782
769.248
765.866
762.641
759.572
756.658
753.896
751.284
748.818
746.501
436.185
529.51
647.428
716.963
767.577
795.508
810.215
817.089
818.96
817.874
815.054
811.269
806.98
802.459
797.869
793.304
788.82
784.457
780.234
776.16
772.25
768.512
764.951
761.569
758.365
755.337
752.479
749.788
747.257
744.886
428.229
522.523
644.674
715.29
769.293
798.285
813.351
820.457
822.337
821.142
818.13
814.095
809.521
804.699
799.802
794.937
790.168
785.536
781.067
776.778
772.679
768.774
765.066
761.554
758.236
755.11
752.169
749.406
746.817
744.4
420.112
514.792
641.707
716.256
771.096
801.246
817.131
824.188
826.114
824.863
821.707
817.47
812.656
807.575
802.415
797.292
792.277
787.416
782.739
778.264
774
769.951
766.121
762.507
759.103
755.903
752.901
750.088
747.458
745.007
411.864
506.495
637.879
714.079
772.7
804.301
820.861
828.163
830.258
829.006
825.754
821.356
816.343
811.041
805.653
800.306
795.078
790.018
785.159
780.52
776.11
771.934
767.994
764.284
760.798
757.529
754.468
751.606
748.935
746.451
403.569
497.699
633.869
717.352
773.68
807.589
824.883
832.627
834.776
833.544
830.232
825.712
820.536
815.048
809.465
803.924
798.509
793.276
788.257
783.473
778.935
774.646
770.607
766.812
763.254
759.922
756.809
753.902
751.194
748.679
395.246
488.378
628.459
715.942
774.099
810.86
829.054
837.26
839.601
838.461
835.131
830.523
825.214
819.568
813.815
808.104
802.525
797.136
791.974
787.061
782.407
778.017
773.89
770.019
766.394
763.007
759.845
756.898
754.156
751.612
386.923
478.607
622.283
713.812
774.968
814.357
833.473
842.155
844.74
843.761
840.439
835.769
830.353
824.572
818.671
812.809
807.083
801.555
796.263
791.232
786.473
781.99
777.781
773.839
770.154
766.714
763.508
760.523
757.749
755.178
378.634
468.411
615.337
710.768
775.844
817.753
838.098
847.348
850.192
849.344
846.151
841.437
835.94
830.043
824.012
818.016
812.158
806.502
801.091
795.95
791.093
786.523
782.237
778.229
774.487
770.998
767.75
764.729
761.924
759.326
370.418
457.824
607.728
710.716
777.221
821.248
842.868
852.832
856.013
855.308
852.132
847.522
841.977
835.977
829.833
823.717
817.737
811.963
806.44
801.196
796.245
791.591
787.233
783.162
779.365
775.829
772.541
769.485
766.65
764.025
362.313
446.875
599.033
711.213
778.882
824.425
847.649
858.521
862.173
861.713
858.556
853.889
848.4
842.375
836.137
829.907
823.816
817.931
812.302
806.96
801.921
797.188
792.76
788.628
784.778
781.197
777.869
774.779
771.914
769.263
354.366
435.625
589.042
712.179
780.192
827.136
852.355
864.374
868.635
868.516
865.475
860.802
855.204
849.138
842.911
836.619
830.419
824.414
818.677
813.24
808.115
803.304
798.807
794.615
790.715
787.091
783.725
780.6
777.705
775.026
346.622
424.224
577.594
707.334
780.803
829.182
856.878
870.332
875.368
875.656
872.821
868.223
862.614
856.478
850.129
843.776
837.55
831.491
825.674
820.144
814.931
810.037
805.462
801.194
797.224
793.536
790.117
786.951
784.022
781.316
339.119
412.802
565.086
701.073
777.158
829.974
861.155
876.375
882.344
883.115
880.557
876.089
870.518
864.358
857.946
851.501
845.166
839.034
833.162
827.565
822.273
817.302
812.653
808.317
804.283
800.537
797.063
793.847
790.873
788.126
331.891
401.447
551.571
693.967
772.694
829.173
865.127
882.494
889.565
890.908
888.695
884.403
878.903
872.749
866.301
859.793
853.38
847.158
841.192
835.516
830.151
825.101
820.372
815.962
811.862
808.057
804.528
801.26
798.237
795.445
324.966
390.246
537.077
686.011
772.378
831.328
869.72
888.928
897.116
899.081
897.27
893.195
887.796
881.671
875.205
868.652
862.176
855.883
849.841
844.089
838.647
833.521
828.716
824.223
820.039
816.153
812.55
809.216
806.135
803.29
318.369
379.288
521.653
676.391
772.794
834.917
874.652
895.638
905.021
907.672
906.323
902.501
897.228
891.148
884.677
878.086
871.555
865.197
859.086
853.266
847.762
842.58
837.727
833.193
828.971
825.046
821.405
818.033
814.915
812.035
312.118
368.659
505.469
664.861
773.8
834.967
878.949
902.415
913.256
916.714
915.911
912.363
907.235
901.215
894.748
888.124
881.536
875.107
868.918
863.017
857.432
852.173
847.244
842.639
838.351
834.365
830.667
827.243
824.076
821.149
306.23
358.437
488.718
651.141
768.466
831.626
882.27
909.139
921.791
926.23
926.05
922.814
917.858
911.916
905.463
898.811
892.167
885.665
879.393
873.403
867.727
862.379
857.362
852.673
848.304
844.242
840.472
836.98
833.749
830.763
300.715
348.687
471.632
635.717
762.307
831.88
885.047
915.805
930.611
936.242
936.727
933.882
929.14
923.299
916.874
910.201
903.503
896.928
890.57
884.487
878.716
873.272
868.161
863.381
858.925
854.78
850.933
847.368
844.068
841.018
295.577
339.468
454.429
618.458
754.501
832.969
885.953
921.991
939.532
946.663
947.952
945.599
941.127
935.419
929.037
922.351
915.603
908.954
902.507
896.328
890.457
884.913
879.7
874.824
870.276
866.043
862.112
858.468
855.095
851.976
290.818
330.824
437.359
599.406
744.415
827.431
888.737
928.698
948.852
957.593
959.788
958.023
953.876
948.332
942.013
935.323
928.529
921.807
915.269
908.99
903.013
897.362
892.044
887.065
882.418
878.09
874.07
870.342
866.89
863.697
286.436
322.79
420.68
578.795
733.063
827.079
894.161
935.937
958.583
969.059
972.283
971.216
967.449
962.105
955.87
949.189
942.354
935.559
928.928
922.544
916.456
910.692
905.263
900.175
895.421
890.993
886.876
883.058
879.52
876.248
282.422
315.383
404.624
556.68
718.238
827.348
894.687
941.543
968.062
980.831
985.385
985.201
981.89
976.796
970.677
964.023
957.156
950.291
943.567
937.074
930.87
924.986
919.439
914.233
909.366
904.828
900.608
896.692
893.062
889.704
278.766
308.613
389.42
533.631
700.164
819.116
889.681
943.929
976.708
992.682
999.042
999.902
997.208
992.457
986.505
979.907
973.024
966.095
959.278
952.673
946.347
940.336
934.663
929.33
924.341
919.686
915.355
911.332
907.603
904.151
275.454
302.473
375.241
510.149
679.628
809.309
888.933
949.558
986.77
1005.45
1013.58
1015.51
1013.53
1009.19
1003.46
996.946
990.062
983.076
976.166
969.447
962.993
956.849
951.04
945.572
940.451
935.67
931.218
927.081
923.244
919.69
272.466
296.948
362.208
486.68
656.422
798.786
889.569
957.802
998.111
1019.21
1029.11
1032.16
1031
1027.13
1021.65
1015.25
1008.39
1001.35
994.352
987.515
980.928
974.643
968.688
963.076
957.814
952.896
948.313
944.052
940.097
936.433
269.782
292.012
350.401
463.717
630.239
788.227
891.158
962.118
1008.27
1033.01
1045.27
1049.79
1049.67
1046.36
1041.2
1034.96
1028.13
1021.06
1013.97
1007.02
1000.29
993.854
987.745
981.979
976.564
971.498
966.773
962.377
958.294
954.509
267.378
287.634
339.86
441.813
601.306
768.081
878.72
958.284
1015.94
1046.3
1061.86
1068.41
1069.48
1066.94
1062.21
1056.19
1049.44
1042.35
1035.18
1028.11
1021.24
1014.64
1008.37
1002.44
996.859
991.632
986.752
982.207
977.985
974.068
265.231
283.788
330.578
421.473
571.13
744.767
871.62
958.422
1023.91
1059.96
1079.26
1088.18
1090.66
1089.05
1084.87
1079.13
1072.5
1065.42
1058.18
1050.99
1043.97
1037.21
1030.76
1024.64
1018.88
1013.48
1008.43
1003.73
999.349
995.287
263.311
280.424
322.506
403.018
540.484
716.632
867.37
960.216
1029.75
1073.06
1097.13
1109.05
1113.31
1112.92
1109.39
1104
1097.53
1090.48
1083.19
1075.87
1068.7
1061.76
1055.12
1048.81
1042.85
1037.26
1032.02
1027.14
1022.6
1018.37
261.591
277.491
315.565
386.656
510.446
682.836
847.681
961.888
1030.95
1084.25
1114.68
1130.65
1137.39
1138.48
1135.85
1130.97
1124.75
1117.77
1110.44
1103.02
1095.68
1088.55
1081.71
1075.19
1069.02
1063.22
1057.78
1052.7
1047.96
1043.56
260.045
274.936
309.654
372.468
482.221
646.002
820.509
951.624
1036.99
1096.34
1132.63
1153.18
1162.97
1165.9
1164.48
1160.29
1154.42
1147.58
1140.24
1132.72
1125.22
1117.9
1110.83
1104.08
1097.68
1091.64
1085.98
1080.68
1075.74
1071.14
258.65
272.703
304.659
360.393
456.619
607.837
787.08
934.609
1032.18
1105.08
1150.26
1176.6
1190.18
1195.44
1195.6
1192.27
1186.87
1180.24
1172.94
1165.33
1157.68
1150.15
1142.84
1135.84
1129.19
1122.89
1116.97
1111.43
1106.26
1101.44
257.383
270.745
300.458
350.285
434.13
570.092
748.285
912.696
1023.04
1111.76
1167.68
1200.93
1219.15
1227.39
1229.34
1227.17
1222.43
1216.13
1208.92
1201.27
1193.47
1185.72
1178.17
1170.89
1163.95
1157.37
1151.17
1145.36
1139.92
1134.85
256.225
269.03
296.933
341.942
414.948
534.364
704.358
882.42
1011.96
1114.36
1183.72
1225.39
1249.55
1261.69
1266.01
1265.43
1261.56
1255.71
1248.68
1241.01
1233.08
1225.11
1217.29
1209.72
1202.46
1195.56
1189.05
1182.93
1177.19
1171.84
255.148
267.549
293.957
335.125
399.007
502.154
657.896
843.378
1003.25
1108.11
1194.46
1248.66
1280.95
1298.35
1306.01
1307.51
1304.9
1299.75
1293.04
1285.44
1277.4
1269.23
1261.13
1253.24
1245.64
1238.4
1231.53
1225.06
1218.99
1213.32
253.862
265.942
290.986
328.377
383.353
468.942
602.866
783.726
967.448
1108.84
1205.51
1276.12
1320.1
1345.54
1358.49
1363.22
1362.77
1358.8
1352.68
1345.27
1337.16
1328.74
1320.28
1311.96
1303.89
1296.16
1288.79
1281.84
1275.29
1269.16
252.69
264.479
288.64
323.607
372.473
444.801
557.459
722.279
915.314
1082.3
1194.11
1291.03
1353.48
1390.55
1410.84
1420.17
1422.5
1420.22
1415.03
1408.02
1399.97
1391.37
1382.58
1373.82
1365.27
1357.02
1349.14
1341.66
1334.6
1327.98
251.624
263.194
286.773
320.145
364.872
427.624
522.375
666.267
855.951
1047.05
1193.59
1296.16
1380.82
1432.44
1462.29
1477.72
1483.75
1483.91
1480
1473.63
1465.77
1457.07
1447.99
1438.82
1429.77
1420.98
1412.54
1404.5
1396.89
1389.72
250.582
262.024
285.212
317.534
359.487
415.51
496.327
619.123
794.341
997.141
1176.03
1308.24
1406.4
1472.08
1512.62
1535.47
1546.4
1549.51
1547.47
1542.11
1534.68
1526.01
1516.71
1507.15
1497.6
1488.25
1479.22
1470.57
1462.36
1454.61
249.592
260.936
283.849
315.473
355.579
406.963
477.474
581.916
736.85
936.893
1136.6
1291.24
1416.75
1505.54
1560.47
1592.78
1609.96
1617.02
1617.57
1613.61
1606.85
1598.39
1588.94
1579.03
1568.99
1559.06
1549.4
1540.1
1531.24
1522.84
248.645
259.908
282.616
313.767
352.647
400.873
463.995
553.798
687.758
874.748
1086.8
1264.43
1410.94
1527.52
1603.27
1648.57
1674.03
1686.38
1690.08
1688.1
1682.39
1674.34
1664.88
1654.68
1644.16
1633.64
1623.32
1613.33
1603.76
1594.67
247.736
258.928
281.472
312.289
350.353
396.452
454.382
533.084
648.205
815.991
1029.87
1245.28
1418.49
1539.89
1640.06
1701.95
1738.11
1757.28
1765.2
1765.9
1761.6
1754.19
1744.86
1734.42
1723.44
1712.31
1701.29
1690.55
1680.22
1670.36
246.861
257.988
280.392
310.963
348.475
393.151
447.493
518.063
617.666
764.1
965.073
1192.23
1393.12
1539.03
1666.1
1749.93
1800.59
1828.94
1842.64
1846.72
1844.47
1838.09
1829.09
1818.54
1807.13
1795.39
1783.63
1772.09
1760.91
1750.22
246.019
257.085
279.363
309.738
346.867
390.593
442.491
507.261
594.887
721.804
903.699
1131.65
1358.78
1540.25
1678.05
1789.81
1859.75
1900.33
1921.73
1930.51
1931.19
1926.28
1917.9
1907.36
1895.59
1883.23
1870.69
1858.29
1846.2
1834.57
245.209
256.215
278.377
308.587
345.439
388.525
438.775
499.483
578.19
688.736
849.263
1066.05
1307.99
1517.99
1696.54
1825.5
1916.46
1971.58
2002.56
2017.42
2021.66
2018.87
2011.48
2001.19
1989.17
1976.21
1962.88
1949.54
1936.46
1923.81
244.43
255.379
277.428
307.492
344.13
386.78
435.924
493.831
566.073
663.7
804.018
1002.31
1247.5
1490.9
1688.86
1834.12
1960.91
2038.12
2083.04
2106.51
2115.86
2116.17
2110.26
2100.48
2088.32
2074.81
2060.65
2046.33
2032.16
2018.37
243.683
254.574
276.513
306.443
342.908
385.249
433.65
489.65
557.303
645.139
768.093
944.722
1179.77
1439.3
1668.02
1842.35
2001.22
2101.6
2163.11
2197.53
2213.73
2217.99
2214.3
2205.47
2193.42
2179.45
2164.47
2149.1
2133.74
2118.71
242.964
253.801
275.633
305.433
341.749
383.861
431.758
486.472
550.926
631.566
740.571
896.241
1113.46
1377.9
1633.34
1843.41
2031.09
2159.2
2241.16
2289.49
2314.66
2324.3
2323.87
2316.52
2304.87
2290.58
2274.8
2258.33
2241.68
2225.27
242.276
253.058
274.784
304.461
340.641
382.574
430.122
483.97
546.227
621.698
719.961
857.204
1052.72
1310.33
1594.12
1848.35
2053.61
2211.91
2317.27
2382.2
2418.54
2435.27
2438.97
2433.84
2423.01
2408.6
2392.1
2374.49
2356.46
2338.52
241.615
252.344
273.967
303.523
339.577
381.361
428.658
481.921
542.685
614.516
704.773
826.876
1000.33
1239.99
1529.28
1809.2
2038.93
2241.03
2383.32
2472.07
2523.84
2550.33
2559.71
2557.84
2548.37
2534.13
2516.97
2498.2
2478.66
2459.04
240.982
251.66
273.181
302.619
338.553
380.206
427.312
480.174
539.93
609.241
693.689
803.977
957.685
1174.95
1458.25
1768.03
2043.23
2249.85
2438.14
2557.69
2629.82
2669.29
2686.51
2689.09
2681.67
2667.91
2650.21
2630.22
2609.04
2587.52
240.376
251.004
272.425
301.747
337.564
379.099
426.052
478.628
537.703
605.291
685.616
787.008
924.26
1118.24
1383.66
1700.81
2008.76
2253.26
2484.27
2640
2737.09
2792.91
2820.25
2828.43
2823.89
2811.01
2792.89
2771.63
2748.61
2724.97
239.795
250.376
271.698
300.906
336.611
378.034
424.856
477.221
535.827
602.245
679.695
774.579
898.844
1071.67
1314.26
1627.4
1964.8
2249.15
2504.61
2710.75
2841.86
2919.69
2960.61
2976.52
2976.2
2964.73
2946.34
2923.75
2898.69
2872.62
239.239
249.774
270.999
300.096
335.69
377.007
423.713
475.91
534.186
599.81
675.282
765.514
879.897
1034.79
1252.81
1549.24
1902.45
2247.42
2523.26
2775.14
2944.25
3049.25
3107.64
3133.96
3139.11
3129.95
3111.69
3087.81
3060.53
3031.7
238.707
249.198
270.327
299.315
334.801
376.016
422.615
474.673
532.705
597.782
671.908
758.883
866.005
1006.6
1201.73
1474
1823.39
2202.01
2545.99
2832.54
3042.66
3180.71
3261.12
3300.98
3313.41
3307.69
3290.07
3264.96
3235.24
3203.23
238.198
248.648
269.683
298.564
333.945
375.061
421.559
473.497
531.34
596.033
669.242
753.975
855.897
985.599
1161.23
1407.4
1739.6
2131.82
2516.45
2855.03
3122.68
3307.61
3418.3
3476.62
3499.33
3498.87
3482.52
3456.28
3423.83
3388.13
237.711
248.122
269.064
297.842
333.12
374.141
420.545
472.375
530.066
594.48
667.061
750.268
848.548
970.215
1130.23
1351.87
1659.34
2048.62
2452.57
2821.92
3153.55
3413.96
3571.47
3657.79
3696.28
3703.55
3689.85
3662.91
3627.58
3587.67
237.244
247.619
268.471
297.149
332.326
373.256
419.571
471.303
528.867
593.069
665.212
747.384
843.159
959.065
1107.1
1307.66
1588.15
1965.03
2405.53
2821.29
3203.13
3524.4
3729.77
3848.38
3906.56
3923.96
3914.32
3887.12
3848.67
3803.93
236.798
247.14
267.903
296.483
331.563
372.404
418.634
470.276
527.73
591.764
663.591
745.055
839.125
950.993
1090.16
1273.58
1527.58
1879.67
2326.03
2793.51
3249.85
3629.47
3889.98
4048.44
4131.7
4162.61
4158.99
4132.04
4090.19
4039.82
236.37
246.683
267.358
295.843
330.828