/*--------------------------------*- C++ -*----------------------------------*\
| =========                 |                                                 |
| \\      /  F ield         | OpenFOAM: The Open Source CFD Toolbox           |
|  \\    /   O peration     | Version:  2312                                  |
|   \\  /    A nd           | Website:  www.openfoam.com                      |
|    \\/     M anipulation  |                                                 |
\*---------------------------------------------------------------------------*/
FoamFile
{
    version     2.0;
    format      ascii;
    arch        "LSB;label=32;scalar=64";
    class       volScalarField;
    location    "20000";
    object      p;
}
// * * * * * * * * * * * * * * * * * * * * * * * * * * * * * * * * * * * * * //

dimensions      [0 2 -2 0 0 0 0];

internalField   nonuniform List<scalar> 
29400
(
51.2064
50.601
48.9673
47.1958
45.2103
43.2122
41.272
39.4378
37.734
36.1686
34.7406
33.4441
32.2704
31.2097
30.2521
29.3879
28.608
27.9038
27.2676
26.6926
26.1726
25.7018
25.2754
24.8888
24.5381
24.2198
23.9306
23.6677
23.4286
23.2111
51.1932
50.5945
48.9655
47.1958
45.2112
43.214
41.2746
39.4411
37.738
36.1733
34.7459
33.45
32.2768
31.2167
30.2595
29.3957
28.6161
27.9121
27.2762
26.7014
26.1814
25.7108
25.2845
24.898
24.5473
24.229
23.9398
23.6769
23.438
23.2207
51.1521
50.5726
48.9558
47.191
45.209
43.2144
41.2773
39.4461
37.7453
36.1828
34.7576
33.4637
32.2925
31.2341
30.2786
29.4162
28.6378
27.9349
27.2999
26.7258
26.2065
25.7364
25.3105
24.9244
24.5741
24.256
23.967
23.7043
23.4653
23.2476
51.0546
50.5181
48.9292
47.174
45.1972
43.2079
41.2756
39.4493
37.7533
36.1954
34.7746
33.4849
32.3176
31.2628
30.3106
29.4512
28.6754
27.9749
27.3419
26.7696
26.2519
25.7832
25.3584
24.9733
24.6239
24.3065
24.0182
23.756
23.5174
23.3002
50.9113
50.4416
48.8875
47.142
45.171
43.1876
41.261
39.4406
37.7503
36.1978
34.7823
33.4974
32.3346
31.2839
30.3355
29.4795
28.7069
28.0093
27.3789
26.809
26.2935
25.8267
25.4039
25.0205
24.6726
24.3568
24.0698
23.8089
23.5715
23.3556
50.7802
50.3685
48.8342
47.0953
45.1289
43.1504
41.2284
39.4127
37.727
36.179
34.7675
33.4866
32.3273
31.2799
30.3345
29.4813
28.7112
28.0158
27.3875
26.8195
26.3057
25.8405
25.419
25.0368
24.6901
24.3752
24.0892
23.8291
23.5927
23.3778
50.6836
50.2918
48.7673
47.0339
45.0718
43.098
41.1803
39.3688
37.6874
36.1434
34.7358
33.4584
32.3025
31.2582
30.3155
29.4649
28.6971
28.0039
27.3776
26.8114
26.2991
25.8353
25.4151
25.034
24.6882
24.3742
24.0889
23.8296
23.5939
23.3796
50.5878
50.1997
48.6846
46.9565
44.999
43.0302
41.1174
39.3109
37.6342
36.0948
34.6915
33.4181
32.2659
31.225
30.2855
29.4376
28.6725
27.9816
27.3576
26.7934
26.283
25.8207
25.4019
25.0221
24.6775
24.3647
24.0804
23.822
23.5871
23.3735
50.4749
50.0916
48.5852
46.8623
44.9097
42.9466
41.0392
39.2382
37.5668
36.0323
34.6337
33.3646
32.2163
31.1789
30.2427
29.3978
28.6353
27.9468
27.3249
26.7626
26.2538
25.7932
25.3757
24.9972
24.6537
24.3418
24.0585
23.8009
23.5666
23.3536
50.347
49.9662
48.4678
46.7504
44.8034
42.8464
40.9451
39.1501
37.4845
35.9555
34.5619
33.2975
32.1534
31.1199
30.1871
29.3453
28.5856
27.8996
27.28
26.7197
26.2128
25.7538
25.3378
24.9607
24.6184
24.3076
24.0252
23.7685
23.5351
23.3227
50.2017
49.8215
48.3311
46.6196
44.6789
42.7289
40.8345
39.0463
37.3871
35.8642
34.4761
33.2166
32.0771
31.0477
30.1186
29.2802
28.5235
27.8402
27.2229
26.6648
26.1598
25.7026
25.2882
24.9124
24.5714
24.2617
23.9804
23.7246
23.4919
23.2803
50.0358
49.6556
48.1736
46.4687
44.5353
42.5933
40.7066
38.926
37.2741
35.7578
34.3758
33.1219
31.9873
30.9624
30.0373
29.2024
28.4489
27.7685
27.1537
26.5979
26.095
25.6396
25.2268
24.8526
24.5129
24.2044
23.9241
23.6693
23.4375
23.2266
49.8471
49.467
47.994
46.2965
44.3715
42.4385
40.5607
38.7887
37.1448
35.6358
34.2606
33.0127
31.8836
30.8635
29.9427
29.1117
28.3616
27.6843
27.0723
26.5189
26.0182
25.5647
25.1538
24.7811
24.4428
24.1356
23.8565
23.6027
23.3718
23.1617
49.6338
49.2541
47.791
46.1017
44.1863
42.2636
40.3957
38.6333
36.9984
35.4977
34.1299
32.8887
31.7655
30.7507
29.8346
29.0078
28.2614
27.5874
26.9784
26.4276
25.9292
25.4779
25.0688
24.6978
24.3611
24.0553
23.7773
23.5246
23.2947
23.0855
49.3943
49.0155
47.5631
45.8832
43.9787
42.0675
40.2108
38.4592
36.8342
35.3426
33.983
32.7491
31.6324
30.6234
29.7125
28.8902
28.1479
27.4774
26.8716
26.3237
25.8278
25.3788
24.9717
24.6026
24.2675
23.9631
23.6865
23.4349
23.206
22.9978
49.1272
48.7499
47.3092
45.6397
43.7474
41.8491
40.0049
38.2653
36.6514
35.1699
33.8192
32.5934
31.4838
30.4811
29.5757
28.7584
28.0205
27.3539
26.7515
26.2067
25.7136
25.267
24.8621
24.4949
24.1616
23.8588
23.5836
23.3333
23.1056
22.8984
48.8313
48.4557
47.0277
45.3699
43.4914
41.6073
39.7772
38.0508
36.4491
34.9786
33.6378
32.4207
31.3189
30.3231
29.4238
28.6118
27.8786
27.2163
26.6176
26.0762
25.586
25.1421
24.7396
24.3745
24.0431
23.742
23.4684
23.2195
22.993
22.7869
48.5051
48.1318
46.7176
45.0726
43.2094
41.3413
39.5265
37.8148
36.2265
34.768
33.438
32.2305
31.1371
30.1488
29.256
28.4499
27.7218
27.0641
26.4695
25.9316
25.4447
25.0036
24.6037
24.2409
23.9116
23.6123
23.3403
23.0929
22.8678
22.6629
48.1475
47.7768
46.3774
44.7468
42.9005
41.0499
39.2521
37.5564
35.9826
34.5373
33.2191
32.0219
30.9377
29.9574
29.0718
28.272
27.5495
26.8966
26.3064
25.7724
25.289
24.851
24.4539
24.0936
23.7665
23.4692
23.199
22.9532
22.7295
22.526
47.7573
47.3895
46.006
44.3911
42.5636
40.7322
38.953
37.2747
35.7169
34.2858
32.9802
31.7943
30.72
29.7484
28.8705
28.0774
27.3609
26.7134
26.1279
25.5981
25.1184
24.6838
24.2897
23.9321
23.6073
23.3123
23.044
22.8
22.5779
22.3757
47.3331
46.9686
45.6022
44.0046
42.1977
40.3873
38.6283
36.9689
35.4283
34.0127
32.7208
31.547
30.4833
29.5211
28.6515
27.8657
27.1556
26.5138
25.9334
25.4081
24.9324
24.5014
24.1105
23.7558
23.4337
23.1409
22.8748
22.6326
22.4122
22.2117
46.874
46.5129
45.1649
43.5863
41.8018
40.0142
38.2772
36.6383
35.1162
33.7172
32.44
31.2792
30.227
29.2748
28.414
27.6361
26.933
26.2973
25.7223
25.2019
24.7305
24.3033
23.9159
23.5643
23.2449
22.9547
22.6908
22.4507
22.2321
22.0332
46.3787
46.0214
44.6931
43.1351
41.3752
39.6122
37.8989
36.282
34.7799
33.3987
32.1373
30.9903
29.9503
29.009
28.1576
27.3881
26.6923
26.0632
25.494
24.9788
24.5121
24.0891
23.7053
23.357
23.0407
22.7532
22.4917
22.2538
22.0372
21.8401
45.8463
45.4931
44.1859
42.6504
40.9169
39.1805
37.4927
35.8994
34.4186
33.0564
31.8118
30.6797
29.6528
28.7229
27.8817
27.121
26.4332
25.8111
25.2481
24.7385
24.2767
23.8581
23.4783
23.1336
22.8204
22.5358
22.2769
22.0413
21.8268
21.6316
45.276
44.9272
43.6424
42.1312
40.4262
38.7185
37.058
35.4899
34.0318
32.6898
31.4631
30.3467
29.3337
28.416
27.5856
26.8345
26.155
25.5404
24.9841
24.4803
24.0238
23.6099
23.2343
22.8934
22.5836
22.3021
22.046
21.8129
21.6007
21.4075
44.6669
44.323
43.0621
41.5771
39.9027
38.2254
36.594
35.0527
33.6187
32.2982
31.0905
29.9909
28.9926
28.0878
27.2688
26.5278
25.8573
25.2506
24.7013
24.2038
23.7529
23.344
22.9729
22.636
22.3299
22.0516
21.7985
21.5681
21.3582
21.1673
44.0185
43.6798
42.4443
40.9874
39.3457
37.7009
36.1004
34.5875
33.179
31.8812
30.6936
29.6116
28.6288
27.7378
26.9309
26.2005
25.5395
24.9412
24.3993
23.9085
23.4635
23.06
22.6937
22.3611
22.0589
21.784
21.534
21.3064
21.0992
20.9106
43.3304
42.9972
41.7887
40.3618
38.755
37.1445
35.5767
34.0937
32.7122
31.4383
30.2718
29.2085
28.2421
27.3656
26.5714
25.8523
25.2013
24.6118
24.0778
23.594
23.1554
22.7575
22.3962
22.0682
21.77
21.4989
21.2522
21.0277
20.8231
20.637
42.6022
42.275
41.095
39.7001
38.1301
36.556
35.0225
33.5711
32.2178
30.9691
29.8248
28.781
27.8319
26.9706
26.1899
25.4826
24.8421
24.262
23.7364
23.26
22.828
22.436
22.0802
21.7569
21.4631
21.1959
20.9528
20.7314
20.5297
20.3462
41.8339
41.5132
40.3632
39.0021
37.471
35.9351
34.4377
33.0193
31.6957
30.4733
29.3522
28.329
27.398
26.5526
25.786
25.0913
24.4618
23.8915
23.3747
22.9061
22.4811
22.0955
21.7452
21.4271
21.1378
20.8747
20.6353
20.4173
20.2187
20.038
41.0255
40.7119
39.5935
38.2681
36.7778
35.2818
33.8222
32.4382
31.1455
29.9506
28.8539
27.8521
26.9401
26.1114
25.3595
24.6779
24.06
23.5001
22.9925
22.5321
22.1145
21.7354
21.3912
21.0783
20.7939
20.5352
20.2997
20.0852
19.8899
19.7121
40.1776
39.8714
38.786
37.4981
36.0505
34.5962
33.1759
31.8278
30.5673
29.401
28.3297
27.3503
26.4579
25.6467
24.9103
24.2423
23.6366
23.0875
22.5895
22.1378
21.7279
21.3558
21.0178
20.7106
20.4312
20.1771
19.9457
19.735
19.5431
19.3684
39.2906
38.9924
37.9415
36.6927
35.2895
33.8786
32.4991
31.1882
29.9611
28.8245
27.7795
26.8233
25.9515
25.1585
24.4382
23.7845
23.1915
22.6537
22.1658
21.7232
21.3214
20.9565
20.625
20.3237
20.0497
19.8003
19.5734
19.3666
19.1782
19.0068
38.3654
38.0757
37.0605
35.8525
34.4954
33.1293
31.792
30.5196
29.327
28.2212
27.2034
26.2714
25.421
24.6468
23.9432
23.3044
22.7246
22.1986
21.7213
21.2881
20.8948
20.5375
20.2129
19.9177
19.6493
19.405
19.1826
18.9799
18.7953
18.6273
37.403
37.1224
36.1442
34.9784
33.6688
32.3488
31.0551
29.8224
28.6654
27.5914
26.6018
25.6947
24.8663
24.1118
23.4255
22.8022
22.2362
21.7224
21.2561
20.8327
20.4482
20.0989
19.7814
19.4928
19.2302
18.9911
18.7735
18.5752
18.3945
18.23
36.4048
36.1337
35.1936
34.0713
32.8105
31.538
30.289
29.097
27.9767
26.9354
25.9748
25.0935
24.2879
23.5536
22.8854
22.278
21.7263
21.2253
20.7704
20.3573
19.982
19.641
19.331
19.049
18.7925
18.559
18.3463
18.1526
17.976
17.8152
35.3723
35.1113
34.2102
33.1325
31.9217
30.6978
29.4944
28.3442
27.2615
26.2538
25.323
24.4682
23.6862
22.9728
22.3232
21.7324
21.1954
20.7077
20.2646
19.8621
19.4964
19.164
18.8617
18.5868
18.3366
18.1088
17.9014
17.7123
17.5401
17.3832
34.3074
34.0569
33.1956
32.1635
31.0036
29.8291
28.6724
27.5649
26.5206
25.5473
24.6471
23.8196
23.0617
22.3698
21.7394
21.1656
20.644
20.1699
19.7391
19.3476
18.9918
18.6683
18.3742
18.1065
17.863
17.6412
17.4391
17.255
17.0872
16.9344
33.2122
32.9725
32.1517
31.1658
30.0576
28.9333
27.8241
26.76
25.755
24.8167
23.9479
23.1482
22.4152
21.7454
21.1347
20.5786
20.0727
19.6127
19.1946
18.8145
18.4689
18.1547
17.8689
17.6088
17.3721
17.1565
16.9601
16.7811
16.6179
16.4694
32.089
31.8606
31.0807
30.1415
29.0854
28.0119
26.9508
25.9308
24.9656
24.0631
23.2263
22.4551
21.7475
21.1004
20.5099
19.9719
19.4822
19.0368
18.6317
18.2634
17.9284
17.6238
17.3466
17.0944
16.8647
16.6556
16.465
16.2913
16.133
15.9888
30.9404
30.7235
29.9847
29.0926
28.0889
27.0666
26.054
25.0786
24.1539
23.2878
22.4836
21.7414
21.0598
20.4358
19.866
19.3466
18.8735
18.4431
18.0514
17.6952
17.3712
17.0764
16.8082
16.5641
16.3417
16.1392
15.9547
15.7865
15.6331
15.4935
29.7692
29.5641
28.8664
28.0215
27.0702
26.0992
25.1354
24.2051
23.3214
22.4921
21.7209
21.0083
20.3531
19.7528
19.2042
18.7038
18.2478
17.8326
17.4548
17.1111
16.7983
16.5137
16.2546
16.0188
15.804
15.6084
15.4301
15.2675
15.1193
14.9844
28.5785
28.3853
27.7286
26.9306
26.0315
25.1118
24.1971
23.312
22.4696
21.6776
20.9399
20.2574
19.629
19.0528
18.5258
18.0447
17.6062
17.2067
16.8431
16.5121
16.2108
15.9366
15.687
15.4597
15.2527
15.0641
14.8922
14.7355
14.5926
14.4625
27.3714
27.1903
26.5742
25.8226
24.9754
24.1067
23.241
22.4014
21.6005
20.8461
20.1423
19.4901
18.889
18.3373
17.8323
17.3709
16.9502
16.5667
16.2175
15.8995
15.6101
15.3466
15.1066
14.8881
14.6891
14.5077
14.3424
14.1916
14.0542
13.9291
26.1515
25.9825
25.4063
24.7007
23.9045
23.0864
22.2694
21.4753
20.7161
19.9996
19.3298
18.7083
18.1349
17.6079
17.1252
16.684
16.2813
15.9141
15.5796
15.275
14.9976
14.745
14.5149
14.3054
14.1145
13.9405
13.7819
13.6373
13.5054
13.3853
24.9224
24.7653
24.2284
23.5678
22.8217
22.0536
21.285
20.5361
19.8186
19.14
18.5046
17.9141
17.3685
16.8666
16.4065
15.9856
15.6012
15.2506
14.9311
14.64
14.3748
14.1333
13.9134
13.713
13.5304
13.3639
13.2122
13.0738
12.9476
12.8327
23.6879
23.5427
23.044
22.4274
21.7303
21.0112
20.2903
19.5864
18.9105
18.2698
17.6688
17.1094
16.5919
16.1153
15.678
15.2776
14.9118
14.578
14.2737
13.9963
13.7436
13.5134
13.3036
13.1125
12.9383
12.7796
12.6348
12.5028
12.3823
12.2728
22.452
22.3185
21.8569
21.283
20.6336
19.9623
19.2883
18.6289
17.9942
17.3915
16.8249
16.2967
15.8073
15.3562
14.9418
14.5622
14.2151
13.8983
13.6092
13.3458
13.1056
12.8868
12.6874
12.5057
12.3401
12.1891
12.0514
11.9258
11.8112
11.707
21.2186
21.0966
20.6709
20.1383
19.5349
18.9102
18.2821
17.6664
17.0726
16.5075
15.9753
15.4782
15.0171
14.5914
14.2001
13.8414
13.5132
13.2134
12.9398
12.6903
12.4629
12.2556
12.0666
11.8944
11.7374
11.5943
11.4637
11.3446
11.236
11.1372
19.9922
19.8813
19.49
18.9971
18.4381
17.8584
17.2749
16.702
16.1485
15.6207
15.1226
14.6566
14.2237
13.8235
13.4553
13.1175
12.8082
12.5255
12.2674
12.032
11.8173
11.6216
11.4431
11.2805
11.1322
10.9969
10.8735
10.761
10.6583
10.5649
18.7768
18.6767
18.3185
17.8636
17.347
16.8105
16.2701
15.739
15.2251
14.734
14.2697
13.8345
13.4296
13.0549
12.7098
12.3928
12.1024
11.8369
11.5943
11.373
11.171
10.9869
10.819
10.6659
10.5263
10.3989
10.2827
10.1767
10.08
9.99211
17.5769
17.4873
17.1604
16.7418
16.2656
15.7705
15.2715
14.7808
14.3054
13.8504
13.4194
13.0147
12.6376
12.2882
11.966
11.6698
11.3982
11.1498
10.9227
10.7154
10.5262
10.3536
10.1962
10.0526
9.92167
9.80222
9.69323
9.59374
9.50301
9.42055
16.3969
16.3173
16.0202
15.6359
15.1981
14.7423
14.2828
13.8309
13.3928
12.973
12.5747
12.2001
11.8504
11.526
11.2265
10.9509
10.698
10.4665
10.2548
10.0614
9.88487
9.72378
9.57681
9.44273
9.32041
9.20881
9.10696
9.01397
8.92918
8.85212
15.241
15.1709
14.902
14.5502
14.1486
13.7299
13.3079
12.893
12.4908
12.1051
11.7387
11.3935
11.0708
10.771
10.4939
10.2386
10.0042
9.78946
9.59297
9.41338
9.24937
9.09965
8.96301
8.83832
8.72454
8.6207
8.52593
8.43938
8.36045
8.28875
14.1134
14.0524
13.81
13.4889
13.1213
12.7376
12.3509
11.9711
11.6031
11.2501
10.9146
10.5981
10.3017
10.026
9.77086
9.53561
9.31939
9.12111
8.93959
8.77359
8.62191
8.4834
8.35693
8.2415
8.13613
8.03995
7.95213
7.87194
7.79879
7.73237
13.0182
12.9658
12.7482
12.4562
12.1205
11.7695
11.4159
11.069
10.7334
10.4117
10.1057
9.81685
9.54611
9.2939
9.06017
8.84447
8.64602
8.46389
8.29703
8.14435
8.00477
7.87724
7.76076
7.6544
7.55728
7.46861
7.38763
7.31365
7.24619
7.18494
11.9592
11.915
11.7206
11.4558
11.15
10.8297
10.507
10.1909
9.88555
9.59329
9.31547
9.05314
8.80703
8.57752
8.36459
8.16787
7.98672
7.82032
7.66775
7.52806
7.40027
7.28345
7.17671
7.0792
6.99013
6.90878
6.83448
6.76658
6.70465
6.64845
10.9402
10.9036
10.7307
10.4916
10.2137
9.92217
9.62824
9.34072
9.06354
8.79879
8.54748
8.31027
8.08766
7.87991
7.68699
7.50859
7.34414
7.19296
7.05423
6.92712
6.81077
6.70434
6.60705
6.51813
6.43688
6.36263
6.2948
6.2328
6.17625
6.12494
9.96411
9.93458
9.7816
9.56675
9.31519
9.05059
8.78348
8.52243
8.27127
8.03199
7.80534
7.5917
7.39128
7.20419
7.03035
6.86946
6.72104
6.58447
6.45905
6.34405
6.23872
6.14231
6.05412
5.97348
5.89976
5.83237
5.77077
5.71446
5.66311
5.61651
9.03364
9.0105
8.87612
8.68425
8.45737
8.21822
7.97621
7.7397
7.5125
7.29664
7.09275
6.90096
6.72125
6.55357
6.39773
6.25344
6.12024
5.99759
5.88488
5.78145
5.68664
5.59981
5.52034
5.44762
5.38111
5.32029
5.26467
5.21381
5.16743
5.12535
8.1536
8.13403
8.01622
7.84648
7.64288
7.42785
7.20948
6.99579
6.79072
6.59634
6.41329
6.24158
6.08101
5.93135
5.79232
5.66359
5.54471
5.43519
5.33448
5.24201
5.15718
5.07944
5.00824
4.94306
4.8834
4.82881
4.77887
4.73319
4.69154
4.65374
7.32861
7.30908
7.20348
7.05539
6.87397
6.6817
6.48575
6.29344
6.10891
5.93428
5.7703
5.61693
5.47388
5.34079
5.21729
5.10299
4.99745
4.90019
4.81072
4.72852
4.65307
4.58388
4.52047
4.46237
4.40917
4.36046
4.31586
4.27507
4.23787
4.2041
6.55746
6.53749
6.44055
6.31228
6.15226
5.98135
5.80678
5.6347
5.46941
5.3131
5.16662
5.03
4.90292
4.78497
4.67569
4.57465
4.48141
4.39549
4.31644
4.24378
4.17706
4.11584
4.05969
4.00821
3.96104
3.91781
3.87821
3.84199
3.80896
3.77894
5.83751
5.81922
5.73039
5.61695
5.47849
5.32765
5.17352
5.0208
4.87375
4.73463
4.60437
4.48313
4.37065
4.2665
4.1702
4.08127
3.99928
3.92376
3.85429
3.79043
3.73176
3.67791
3.62848
3.58313
3.54153
3.50339
3.46842
3.43643
3.40726
3.38071
5.17113
5.15627
5.07451
4.96897
4.8526
4.72101
4.58626
4.45217
4.32257
4.19974
4.08472
3.97778
3.87874
3.78723
3.70277
3.62491
3.55318
3.48716
3.42644
3.37063
3.31936
3.27226
3.22901
3.1893
3.15285
3.11938
3.08868
3.06059
3.03498
3.0116
4.55972
4.54636
4.47142
4.3722
4.27435
4.16153
4.0448
3.92841
3.81556
3.70832
3.60777
3.51427
3.42776
3.34792
3.27436
3.20662
3.14427
3.08693
3.0342
2.98574
2.94121
2.9003
2.86271
2.82817
2.79643
2.76726
2.74047
2.71596
2.69361
2.67313
4.00196
3.98811
3.92275
3.83025
3.74189
3.64761
3.54826
3.44859
3.35165
3.25932
3.17258
3.09183
3.01709
2.94815
2.88467
2.82626
2.77253
2.72311
2.67768
2.63593
2.59756
2.56229
2.52986
2.50005
2.47261
2.44737
2.42417
2.40294
2.38358
2.36574
3.49868
3.48518
3.42986
3.34411
3.25776
3.17677
3.09449
3.01127
2.92933
2.85102
2.77735
2.70869
2.64505
2.58632
2.53225
2.48248
2.43668
2.39454
2.35578
2.32014
2.28738
2.25725
2.22953
2.20401
2.1805
2.15884
2.1389
2.12066
2.10401
2.08857
3.04829
3.03608
2.98953
2.91446
2.8304
2.75175
2.68092
2.61334
2.54629
2.48144
2.42002
2.36261
2.30932
2.2601
2.21478
2.17304
2.13456
2.09908
2.06639
2.03632
2.00864
1.98318
1.95972
1.9381
1.91815
1.89974
1.88277
1.86724
1.85303
1.83976
2.64802
2.63725
2.59826
2.53504
2.46031
2.3838
2.31379
2.25321
2.19896
2.14717
2.09772
2.05116
2.00748
1.96702
1.92975
1.89538
1.86359
1.83418
1.80703
1.78199
1.75893
1.73768
1.71808
1.69997
1.68323
1.66773
1.65342
1.64032
1.62829
1.61694
2.29464
2.28529
2.25321
2.2
2.13761
2.07092
2.00386
1.94366
1.89149
1.84582
1.80651
1.7708
1.73655
1.70439
1.67463
1.647
1.62118
1.59715
1.57489
1.55435
1.53542
1.51795
1.50182
1.4869
1.47308
1.46024
1.44837
1.43747
1.42742
1.41782
1.98481
1.97687
1.95103
1.90698
1.85468
1.79929
1.74292
1.6881
1.6372
1.59342
1.55573
1.52215
1.49259
1.46701
1.44483
1.42457
1.40506
1.38642
1.36892
1.35262
1.33747
1.32339
1.31032
1.29816
1.28684
1.27628
1.26647
1.25743
1.24904
1.2409
1.7149
1.70832
1.68782
1.65191
1.60854
1.56261
1.51587
1.47107
1.42902
1.38999
1.35335
1.32065
1.2932
1.26978
1.24886
1.22954
1.21189
1.19614
1.18205
1.16929
1.15762
1.14687
1.13695
1.1278
1.11934
1.1114
1.1039
1.09689
1.09029
1.08374
1.48137
1.47611
1.46006
1.43083
1.39506
1.35777
1.31939
1.28248
1.24801
1.21641
1.18773
1.1618
1.13828
1.11661
1.09617
1.07754
1.06144
1.04749
1.0351
1.02386
1.01354
1.00399
0.995123
0.9869
0.97923
0.971979
0.965255
0.959205
0.953644
0.948086
1.28057
1.27658
1.26425
1.24058
1.21071
1.18069
1.14968
1.11954
1.09138
1.06558
1.04228
1.02137
1.00261
0.985674
0.970251
0.956081
0.942944
0.930669
0.919134
0.908251
0.897983
0.888311
0.879204
0.870614
0.862544
0.855112
0.848432
0.842458
0.836886
0.831183
1.10871
1.10576
1.09629
1.07746
1.05254
1.02851
1.0037
0.979025
0.955897
0.934687
0.915496
0.898177
0.882489
0.868165
0.854967
0.842709
0.831252
0.820481
0.810272
0.800638
0.791602
0.783029
0.774909
0.767284
0.760128
0.753416
0.747151
0.741329
0.735745
0.730017
0.962348
0.96018
0.952833
0.938394
0.917879
0.898638
0.878863
0.858562
0.839453
0.82192
0.806046
0.791694
0.778651
0.766674
0.755544
0.745081
0.735166
0.725701
0.716651
0.708023
0.699818
0.692001
0.684581
0.677567
0.670964
0.664757
0.658957
0.653562
0.64838
0.643058
0.838616
0.837007
0.831272
0.820682
0.80426
0.788738
0.772649
0.755733
0.739789
0.72515
0.711868
0.699817
0.688813
0.678644
0.669122
0.660103
0.651479
0.64312
0.635136
0.627586
0.620267
0.613201
0.606525
0.600194
0.594214
0.588577
0.583297
0.578376
0.573637
0.568755
0.735
0.733831
0.729395
0.721965
0.709231
0.696537
0.682958
0.66875
0.655369
0.643095
0.631945
0.621805
0.612518
0.60389
0.595754
0.587979
0.580417
0.573123
0.566173
0.559391
0.552796
0.546495
0.540481
0.534753
0.529327
0.524199
0.519386
0.514891
0.51055
0.506063
0.649246
0.648514
0.64526
0.640345
0.6302
0.619347
0.607844
0.595912
0.584596
0.574233
0.564809
0.556234
0.548362
0.541013
0.534035
0.527313
0.520687
0.514281
0.508191
0.502162
0.496236
0.490579
0.485164
0.479993
0.475084
0.470436
0.466068
0.461982
0.458026
0.453918
0.578984
0.578659
0.576472
0.573639
0.565232
0.555281
0.545587
0.535651
0.526052
0.517268
0.509286
0.50203
0.495349
0.489082
0.483087
0.47725
0.471504
0.465886
0.4604
0.455015
0.449752
0.444659
0.43976
0.435071
0.430607
0.426372
0.422385
0.41865
0.415023
0.411238
0.521817
0.521805
0.520448
0.519038
0.512054
0.503062
0.495112
0.486762
0.47854
0.471016
0.464183
0.457974
0.452238
0.446835
0.441633
0.436483
0.431417
0.426519
0.421625
0.416747
0.412
0.407388
0.402934
0.398658
0.394575
0.390692
0.387026
0.383587
0.380235
0.376723
0.475625
0.475808
0.47499
0.474408
0.469224
0.461448
0.45482
0.44787
0.440841
0.434329
0.428382
0.422961
0.417937
0.41319
0.408598
0.403984
0.399449
0.395107
0.390682
0.386217
0.381887
0.377672
0.373587
0.369657
0.365895
0.362313
0.358924
0.35574
0.352625
0.349345
0.43877
0.439099
0.438687
0.438678
0.435391
0.42873
0.423095
0.417437
0.411366
0.405654
0.400397
0.395575
0.391084
0.386822
0.382675
0.378454
0.374301
0.370346
0.366256
0.362089
0.358053
0.354113
0.350283
0.346592
0.343052
0.339675
0.336477
0.333469
0.330522
0.327418
0.409964
0.410428
0.410377
0.410755
0.409059
0.403719
0.398881
0.393849
0.388429
0.383372
0.378712
0.374406
0.37037
0.366517
0.362738
0.358842
0.354989
0.351317
0.347478
0.343533
0.339705
0.335958
0.332308
0.32878
0.325394
0.322162
0.3191
0.316222
0.313404
0.31042
0.388019
0.388649
0.388999
0.389764
0.389447
0.384839
0.379904
0.375256
0.370544
0.366095
0.361925
0.358023
0.354338
0.350785
0.347266
0.343607
0.33996
0.33646
0.332785
0.328996
0.325306
0.321683
0.318148
0.314728
0.311444
0.308307
0.305334
0.30254
0.299796
0.296907
0.371475
0.372219
0.372893
0.373918
0.374508
0.37024
0.365198
0.361393
0.357441
0.353408
0.34954
0.345887
0.342417
0.339047
0.335689
0.332189
0.328674
0.325272
0.321712
0.318041
0.314446
0.310911
0.307456
0.30411
0.300892
0.297815
0.294895
0.292148
0.289451
0.286598
0.359066
0.35988
0.36074
0.361832
0.363021
0.359899
0.355149
0.351545
0.347793
0.343865
0.340167
0.336696
0.333383
0.330136
0.32688
0.323493
0.320057
0.316683
0.313184
0.309589
0.306044
0.302551
0.299135
0.295825
0.292638
0.289589
0.286694
0.283968
0.281267
0.27845
0.349907
0.350771
0.351771
0.352934
0.354614
0.353093
0.348734
0.34459
0.340549
0.336593
0.33304
0.329742
0.32657
0.323436
0.320272
0.316984
0.313604
0.310223
0.306761
0.303225
0.299703
0.296231
0.292831
0.289535
0.286357
0.283316
0.28042
0.27769
0.275035
0.27225
0.343118
0.344008
0.345077
0.34624
0.348123
0.347865
0.343927
0.339535
0.335496
0.331614
0.328115
0.324835
0.321661
0.318515
0.315333
0.312057
0.308654
0.30519
0.30171
0.29819
0.294655
0.29117
0.287762
0.284461
0.28128
0.278241
0.27535
0.272601
0.269901
0.267133
0.338024
0.33892
0.339991
0.341095
0.342923
0.343424
0.339935
0.335761
0.332216
0.328604
0.325109
0.321742
0.318463
0.315214
0.311929
0.308569
0.305049
0.301483
0.297989
0.294415
0.290791
0.287256
0.283808
0.280471
0.277259
0.274191
0.271277
0.26856
0.265896
0.26308
0.334139
0.335015
0.336028
0.33702
0.338637
0.339654
0.337156
0.333441
0.330234
0.326864
0.323298
0.319816
0.316419
0.313045
0.309638
0.306162
0.302487
0.298815
0.295309
0.291644
0.287889
0.284272
0.28075
0.27734
0.274059
0.270926
0.267949
0.265147
0.262404
0.259561
0.331305
0.332175
0.333154
0.334071
0.335482
0.336811
0.335308
0.332051
0.329099
0.325807
0.322087
0.318459
0.31492
0.311409
0.307876
0.304282
0.300468
0.296691
0.293132
0.289376
0.285511
0.281816
0.278223
0.274747
0.271405
0.268215
0.265179
0.26232
0.259539
0.256667
0.329183
0.33006
0.331034
0.331919
0.333189
0.334684
0.334042
0.33093
0.327835
0.32467
0.321047
0.317397
0.313756
0.310115
0.306446
0.302711
0.298809
0.294904
0.291139
0.28727
0.283345
0.279551
0.275864
0.272302
0.268881
0.265617
0.262521
0.259605
0.256763
0.253843
0.327576
0.32846
0.329414
0.330227
0.331336
0.332817
0.332871
0.329845
0.326274
0.323237
0.319839
0.31613
0.312323
0.308478
0.304586
0.30063
0.29657
0.292471
0.288435
0.284402
0.280375
0.276442
0.272624
0.268948
0.265425
0.262045
0.258843
0.255877
0.252995
0.250028
0.326463
0.327397
0.328401
0.329239
0.330327
0.331817
0.332525
0.330202
0.326182
0.322678
0.319171
0.315219
0.31122
0.307206
0.303152
0.299052
0.294901
0.290666
0.286431
0.282313
0.278228
0.274197
0.2703
0.266555
0.262969
0.259584
0.25638
0.253335
0.250383
0.247404
0.32454
0.32554
0.32664
0.327593
0.328807
0.330401
0.331586
0.330125
0.325986
0.321835
0.317927
0.313676
0.30949
0.305348
0.301204
0.297034
0.292811
0.288438
0.284135
0.28008
0.275935
0.27178
0.26783
0.264042
0.260416
0.256972
0.253717
0.250667
0.247717
0.244735
0.321356
0.322295
0.323186
0.323768
0.324463
0.325443
0.326357
0.325633
0.322278
0.317944
0.313702
0.3094
0.305038
0.300677
0.2963
0.291891
0.287438
0.282833
0.278325
0.274104
0.269783
0.265448
0.261348
0.257425
0.253651
0.250073
0.246745
0.243632
0.240612
0.237575
0.319536
0.320454
0.321304
0.321809
0.322368
0.323205
0.324183
0.324344
0.322224
0.318243
0.314137
0.310071
0.305621
0.301047
0.296385
0.291656
0.286879
0.282017
0.277201
0.272568
0.267986
0.263475
0.259156
0.255029
0.25113
0.247444
0.243931
0.240652
0.237533
0.234421
0.318005
0.319004
0.320037
0.320778
0.321598
0.322744
0.324099
0.324959
0.323835
0.320308
0.316033
0.311729
0.307054
0.30212
0.297048
0.291888
0.28668
0.281464
0.276225
0.271091
0.266192
0.26141
0.25676
0.252349
0.248168
0.244224
0.240523
0.237074
0.233785
0.230531
0.314548
0.315561
0.316571
0.317218
0.317857
0.318756
0.319929
0.320982
0.320749
0.318069
0.313749
0.30923
0.304401
0.299081
0.293612
0.288067
0.282485
0.276896
0.271189
0.265696
0.260625
0.255508
0.250444
0.24573
0.241267
0.237057
0.233102
0.229416
0.225904
0.222454
0.311102
0.312142
0.313188
0.313848
0.314455
0.315259
0.316346
0.317511
0.317973
0.316427
0.312524
0.307805
0.302828
0.297334
0.29163
0.285816
0.27994
0.274047
0.268095
0.262304
0.256844
0.251451
0.246175
0.241202
0.236492
0.232052
0.227882
0.223986
0.220278
0.21665
0.306798
0.307859
0.308927
0.309593
0.310173
0.310897
0.311895
0.313095
0.313988
0.31339
0.310188
0.305183
0.299922
0.294488
0.28867
0.282665
0.276552
0.270402
0.264265
0.2582
0.252332
0.246689
0.241254
0.236031
0.231084
0.226453
0.222109
0.218026
0.21415
0.210367
0.301994
0.303067
0.304134
0.304786
0.305319
0.305954
0.306829
0.30798
0.309114
0.309324
0.307294
0.30266
0.297089
0.291415
0.285408
0.279207
0.272904
0.266563
0.26025
0.25392
0.247812
0.242104
0.236498
0.231056
0.225967
0.22118
0.216692
0.212509
0.208553
0.204719
0.297031
0.298096
0.299133
0.299732
0.300177
0.300675
0.301351
0.302304
0.303407
0.304052
0.303092
0.299465
0.294061
0.288341
0.28231
0.275834
0.269233
0.262614
0.256034
0.249396
0.243041
0.237204
0.231384
0.225693
0.220428
0.215492
0.210869
0.206572
0.202524
0.198623
0.292329
0.293386
0.294411
0.294978
0.295374
0.29578
0.296307
0.297074
0.298065
0.298901
0.298688
0.296274
0.291641
0.286114
0.280008
0.273246
0.266309
0.259341
0.252408
0.245497
0.238802
0.232488
0.226369
0.220479
0.214955
0.209775
0.204934
0.20044
0.196213
0.192161
0.287848
0.288908
0.28995
0.290528
0.290931
0.291319
0.291782
0.292437
0.293343
0.294296
0.294635
0.293261
0.289386
0.283899
0.277832
0.27119
0.264127
0.256904
0.249649
0.24247
0.23541
0.228597
0.222166
0.216042
0.210223
0.204779
0.199706
0.195004
0.190599
0.186399
0.283373
0.284447
0.285512
0.28611
0.286531
0.286921
0.287354
0.287934
0.288758
0.289756
0.290474
0.289973
0.287168
0.282023
0.275986
0.269495
0.262356
0.25495
0.247456
0.239999
0.232544
0.225432
0.21888
0.212467
0.206278
0.200577
0.195273
0.190358
0.18576
0.181392
0.278919
0.280015
0.281113
0.281744
0.282199
0.282615
0.283047
0.283583
0.284328
0.285307
0.286248
0.286428
0.284715
0.280309
0.274439
0.268071
0.260924
0.253301
0.245539
0.237795
0.230025
0.222609
0.215785
0.209068
0.202566
0.196584
0.191016
0.18585
0.181021
0.176441
0.274379
0.275499
0.276642
0.277325
0.277842
0.278324
0.278811
0.279372
0.280105
0.281083
0.282181
0.282874
0.282165
0.27904
0.273599
0.267141
0.260063
0.252356
0.244416
0.236425
0.228433
0.220684
0.213379
0.206325
0.199569
0.193261
0.187375
0.181905
0.176787
0.171932
0.26952
0.270659
0.271828
0.272534
0.273079
0.273586
0.274091
0.274645
0.275338
0.276255
0.277389
0.278398
0.278496
0.276544
0.271696
0.265291
0.25853
0.251115
0.243195
0.235076
0.226945
0.218917
0.211154
0.203788
0.196793
0.190166
0.183965
0.17819
0.172778
0.167645
0.264338
0.265485
0.266655
0.267348
0.267873
0.268351
0.26881
0.269285
0.269849
0.270589
0.27156
0.272588
0.273095
0.27206
0.268477
0.262743
0.256251
0.249063
0.241056
0.232749
0.224371
0.215955
0.207861
0.200342
0.193007
0.185952
0.179427
0.173354
0.167652
0.162259
0.258974
0.260124
0.261276
0.261931
0.262406
0.262825
0.26321
0.263591
0.264024
0.264592
0.265375
0.266325
0.267068
0.266801
0.264492
0.259499
0.25279
0.245265
0.237053
0.228529
0.219902
0.211139
0.202745
0.19505
0.187428
0.180024
0.173235
0.166947
0.161056
0.15551
0.253649
0.254796
0.255923
0.256526
0.256933
0.257266
0.257543
0.257794
0.258058
0.258411
0.258943
0.259687
0.260434
0.260555
0.259005
0.254709
0.24795
0.240253
0.232075
0.22336
0.21444
0.20542
0.196673
0.188421
0.180426
0.172859
0.165859
0.159329
0.153242
0.14753
0.248553
0.249707
0.250837
0.251434
0.251818
0.252115
0.252334
0.252499
0.252634
0.252799
0.253081
0.253558
0.254148
0.254409
0.253449
0.250141
0.244111
0.236596
0.228405
0.21947
0.210153
0.200766
0.191558
0.182754
0.174405
0.166517
0.159162
0.152363
0.146067
0.14019
0.24369
0.244873
0.246064
0.246728
0.247191
0.24757
0.247865
0.248098
0.248272
0.248442
0.24867
0.249061
0.249614
0.250067
0.249735
0.247533
0.242493
0.235086
0.226743
0.21763
0.20785
0.197974
0.188166
0.178766
0.170014
0.161698
0.153882
0.146737
0.140167
0.134067
0.238857
0.240096
0.241404
0.242222
0.242876
0.243482
0.244032
0.244542
0.244999
0.245442
0.245906
0.246484
0.247215
0.247994
0.248305
0.247183
0.243495
0.237056
0.229227
0.220327
0.210335
0.200023
0.18957
0.179527
0.170268
0.161273
0.152718
0.144934
0.137768
0.131106
0.233718
0.235018
0.236452
0.237434
0.238301
0.239169
0.240031
0.240896
0.241746
0.2426
0.243472
0.24443
0.245528
0.246759
0.247776
0.247845