/*--------------------------------*- C++ -*----------------------------------*\
| =========                 |                                                 |
| \\      /  F ield         | OpenFOAM: The Open Source CFD Toolbox           |
|  \\    /   O peration     | Version:  2312                                  |
|   \\  /    A nd           | Website:  www.openfoam.com                      |
|    \\/     M anipulation  |                                                 |
\*---------------------------------------------------------------------------*/
FoamFile
{
    version     2.0;
    format      ascii;
    arch        "LSB;label=32;scalar=64";
    class       surfaceScalarField;
    location    "20000";
    object      phi;
}
// * * * * * * * * * * * * * * * * * * * * * * * * * * * * * * * * * * * * * //

dimensions      [0 3 -1 0 0 0 0];

oriented        oriented;

internalField   nonuniform List<scalar> 
58450
(
5.58922e-09
-5.5894e-09
1.92693e-08
-1.36805e-08
3.70078e-08
-1.7739e-08
5.78187e-08
-2.08114e-08
7.94979e-08
-2.16799e-08
1.00994e-07
-2.14967e-08
1.2156e-07
-2.05666e-08
1.40827e-07
-1.92674e-08
1.58652e-07
-1.78254e-08
1.75013e-07
-1.63608e-08
1.89956e-07
-1.49424e-08
2.03562e-07
-1.36062e-08
2.15931e-07
-1.23687e-08
2.27166e-07
-1.12348e-08
2.37369e-07
-1.02027e-08
2.46636e-07
-9.26708e-09
2.55057e-07
-8.4209e-09
2.62713e-07
-7.65559e-09
2.69675e-07
-6.96195e-09
2.76009e-07
-6.33359e-09
2.81774e-07
-5.76582e-09
2.87025e-07
-5.2514e-09
2.9181e-07
-4.78469e-09
2.9617e-07
-4.36109e-09
3.00147e-07
-3.97664e-09
3.03774e-07
-3.62751e-09
3.07085e-07
-3.31145e-09
3.10111e-07
-3.02557e-09
3.12864e-07
-2.75297e-09
-2.52531e-09
3.15389e-07
1.25152e-08
-1.81048e-08
4.25393e-08
-4.3705e-08
8.35373e-08
-5.87376e-08
1.31763e-07
-6.90381e-08
1.8314e-07
-7.3057e-08
2.35143e-07
-7.35001e-08
2.85943e-07
-7.13674e-08
3.34478e-07
-6.78028e-08
3.80178e-07
-6.35257e-08
4.22788e-07
-5.897e-08
4.6225e-07
-5.44049e-08
4.98631e-07
-4.9987e-08
5.32066e-07
-4.58029e-08
5.62727e-07
-4.18955e-08
5.90805e-07
-3.82802e-08
6.16493e-07
-3.49559e-08
6.39984e-07
-3.19113e-08
6.61457e-07
-2.91289e-08
6.81082e-07
-2.65868e-08
6.99016e-07
-2.42669e-08
7.15403e-07
-2.21531e-08
7.30378e-07
-2.02268e-08
7.44064e-07
-1.84708e-08
7.56573e-07
-1.68704e-08
7.68008e-07
-1.54118e-08
7.78463e-07
-1.40822e-08
7.88021e-07
-1.28704e-08
7.96762e-07
-1.17659e-08
8.04759e-07
-1.07505e-08
-9.8346e-09
8.12068e-07
1.5093e-08
-3.31979e-08
5.18558e-08
-8.04677e-08
1.03241e-07
-1.10123e-07
1.63784e-07
-1.29582e-07
2.28933e-07
-1.38206e-07
2.95499e-07
-1.40066e-07
3.61216e-07
-1.37085e-07
4.24652e-07
-1.31239e-07
4.84953e-07
-1.23826e-07
5.41659e-07
-1.15676e-07
5.94578e-07
-1.07324e-07
6.4369e-07
-9.90994e-08
6.89087e-07
-9.11998e-08
7.30927e-07
-8.37353e-08
7.69406e-07
-7.67596e-08
8.04741e-07
-7.02904e-08
8.37152e-07
-6.43224e-08
8.66858e-07
-5.88351e-08
8.94069e-07
-5.37978e-08
9.18984e-07
-4.91815e-08
9.41789e-07
-4.49588e-08
9.6266e-07
-4.10982e-08
9.8176e-07
-3.75702e-08
9.99236e-07
-3.43472e-08
1.01523e-06
-3.14036e-08
1.02986e-06
-2.87153e-08
1.04325e-06
-2.62605e-08
1.05551e-06
-2.40219e-08
1.06673e-06
-2.19773e-08
-2.00979e-08
1.077e-06
1.59483e-08
-4.91463e-08
5.54384e-08
-1.19958e-07
1.11207e-07
-1.65891e-07
1.76967e-07
-1.95342e-07
2.4798e-07
-2.09219e-07
3.20761e-07
-2.12847e-07
3.92889e-07
-2.09213e-07
4.62788e-07
-2.01139e-07
5.29491e-07
-1.90529e-07
5.92454e-07
-1.78638e-07
6.5142e-07
-1.6629e-07
7.06328e-07
-1.54007e-07
7.57238e-07
-1.4211e-07
8.04293e-07
-1.3079e-07
8.47681e-07
-1.20147e-07
8.87616e-07
-1.10225e-07
9.24324e-07
-1.0103e-07
9.58032e-07
-9.25428e-08
9.8896e-07
-8.4726e-08
1.01732e-06
-7.75422e-08
1.04332e-06
-7.09535e-08
1.06713e-06
-6.49168e-08
1.08895e-06
-5.93897e-08
1.10894e-06
-5.4332e-08
1.12724e-06
-4.97057e-08
1.144e-06
-4.54752e-08
1.15935e-06
-4.16079e-08
1.1734e-06
-3.80761e-08
1.18627e-06
-3.48509e-08
-3.18908e-08
1.19807e-06
1.64669e-08
-6.56131e-08
5.77997e-08
-1.61291e-07
1.16509e-07
-2.24601e-07
1.85793e-07
-2.64627e-07
2.6068e-07
-2.84105e-07
3.375e-07
-2.89667e-07
4.13732e-07
-2.85446e-07
4.87724e-07
-2.75131e-07
5.58451e-07
-2.61256e-07
6.25331e-07
-2.45518e-07
6.88079e-07
-2.29038e-07
7.46613e-07
-2.12541e-07
8.00979e-07
-1.96477e-07
8.51308e-07
-1.81119e-07
8.97782e-07
-1.66621e-07
9.40612e-07
-1.53056e-07
9.80025e-07
-1.40443e-07
1.01625e-06
-1.28769e-07
1.04952e-06
-1.17991e-07
1.08004e-06
-1.08065e-07
1.10803e-06
-9.89453e-08
1.13369e-06
-9.05764e-08
1.15721e-06
-8.29039e-08
1.17875e-06
-7.58748e-08
1.19848e-06
-6.94388e-08
1.21655e-06
-6.35484e-08
1.23311e-06
-5.81599e-08
1.24826e-06
-5.3234e-08
1.26215e-06
-4.87336e-08
-4.46114e-08
1.27487e-06
1.69151e-08
-8.25282e-08
5.98387e-08
-2.04215e-07
1.20986e-07
-2.85749e-07
1.93216e-07
-3.36856e-07
2.71336e-07
-3.62226e-07
3.51519e-07
-3.6985e-07
4.31145e-07
-3.65072e-07
5.08497e-07
-3.52482e-07
5.82505e-07
-3.35265e-07
6.52559e-07
-3.15571e-07
7.18355e-07
-2.94835e-07
7.79798e-07
-2.73984e-07
8.36928e-07
-2.53606e-07
8.89869e-07
-2.34061e-07
9.38803e-07
-2.15555e-07
9.83941e-07
-1.98193e-07
1.02551e-06
-1.82013e-07
1.06375e-06
-1.67005e-07
1.09888e-06
-1.53123e-07
1.13113e-06
-1.40319e-07
1.16073e-06
-1.28539e-07
1.18787e-06
-1.17716e-07
1.21275e-06
-1.07784e-07
1.23555e-06
-9.86758e-08
1.25644e-06
-9.03297e-08
1.27558e-06
-8.2686e-08
1.2931e-06
-7.56887e-08
1.30916e-06
-6.92863e-08
1.32385e-06
-6.34313e-08
-5.80715e-08
1.33731e-06
1.73502e-08
-9.98784e-08
6.17199e-08
-2.48584e-07
1.25026e-07
-3.49055e-07
1.99877e-07
-4.11708e-07
2.80878e-07
-4.43227e-07
3.64052e-07
-4.53024e-07
4.46689e-07
-4.47708e-07
5.27006e-07
-4.328e-07
6.039e-07
-4.12158e-07
6.76732e-07
-3.88404e-07
7.45187e-07
-3.63289e-07
8.09159e-07
-3.37956e-07
8.68684e-07
-3.13131e-07
9.23887e-07
-2.89264e-07
9.74949e-07
-2.66617e-07
1.02208e-06
-2.45327e-07
1.06552e-06
-2.25451e-07
1.1055e-06
-2.06984e-07
1.14226e-06
-1.89881e-07
1.17603e-06
-1.74087e-07
1.20703e-06
-1.59539e-07
1.23547e-06
-1.4616e-07
1.26156e-06
-1.3387e-07
1.28547e-06
-1.22593e-07
1.30739e-06
-1.12251e-07
1.32748e-06
-1.02774e-07
1.34589e-06
-9.40929e-08
1.36274e-06
-8.61441e-08
1.37818e-06
-7.887e-08
-7.22127e-08
1.39232e-06
1.77788e-08
-1.17657e-07
6.35068e-08
-2.94312e-07
1.28805e-07
-4.14353e-07
2.06067e-07
-4.8897e-07
2.89708e-07
-5.26868e-07
3.75615e-07
-5.38932e-07
4.6099e-07
-5.33084e-07
5.43998e-07
-5.15809e-07
6.23498e-07
-4.91658e-07
6.98833e-07
-4.63739e-07
7.69675e-07
-4.34131e-07
8.35912e-07
-4.04193e-07
8.97578e-07
-3.74797e-07
9.54798e-07
-3.46484e-07
1.00776e-06
-3.19575e-07
1.05667e-06
-2.94241e-07
1.10177e-06
-2.70554e-07
1.14331e-06
-2.48519e-07
1.18152e-06
-2.28091e-07
1.21664e-06
-2.09208e-07
1.2489e-06
-1.91798e-07
1.27851e-06
-1.75773e-07
1.30568e-06
-1.61042e-07
1.3306e-06
-1.47515e-07
1.35346e-06
-1.35103e-07
1.37441e-06
-1.23722e-07
1.3936e-06
-1.13292e-07
1.4112e-06
-1.03736e-07
1.42731e-06
-9.49881e-08
-8.69838e-08
1.44209e-06
1.8204e-08
-1.35861e-07
6.52399e-08
-3.41348e-07
1.3243e-07
-4.81543e-07
2.11964e-07
-5.68504e-07
2.98075e-07
-6.1298e-07
3.86527e-07
-6.27384e-07
4.74442e-07
-6.20999e-07
5.59936e-07
-6.01302e-07
6.41836e-07
-5.73559e-07
7.1947e-07
-5.41372e-07
7.92498e-07
-5.07159e-07
8.60805e-07
-4.72501e-07
9.24425e-07
-4.38417e-07
9.83484e-07
-4.05544e-07
1.03817e-06
-3.7426e-07
1.0887e-06
-3.44772e-07
1.13532e-06
-3.17171e-07
1.17827e-06
-2.91468e-07
1.2178e-06
-2.6762e-07
1.25415e-06
-2.4556e-07
1.28755e-06
-2.25203e-07
1.31823e-06
-2.06452e-07
1.34639e-06
-1.89204e-07
1.37223e-06
-1.73356e-07
1.39594e-06
-1.58807e-07
1.41767e-06
-1.45459e-07
1.4376e-06
-1.3322e-07
1.45587e-06
-1.22003e-07
1.47261e-06
-1.1173e-07
-1.0233e-07
1.48796e-06
1.86305e-08
-1.54492e-07
6.69472e-08
-3.89665e-07
1.3597e-07
-5.50566e-07
2.17684e-07
-6.50218e-07
3.06147e-07
-7.01443e-07
3.97007e-07
-7.18244e-07
4.87312e-07
-7.11305e-07
5.75136e-07
-6.89125e-07
6.5928e-07
-6.57703e-07
7.39058e-07
-6.21149e-07
8.14121e-07
-5.82222e-07
8.84353e-07
-5.42733e-07
9.49785e-07
-5.0385e-07
1.01055e-06
-4.66306e-07
1.06683e-06
-4.30542e-07
1.11886e-06
-3.968e-07
1.16687e-06
-3.65187e-07
1.21113e-06
-3.35723e-07
1.25188e-06
-3.08368e-07
1.28936e-06
-2.83046e-07
1.32382e-06
-2.59664e-07
1.35549e-06
-2.38113e-07
1.38456e-06
-2.18278e-07
1.41125e-06
-2.00044e-07
1.43574e-06
-1.83296e-07
1.4582e-06
-1.67924e-07
1.4788e-06
-1.53823e-07
1.49769e-06
-1.40893e-07
1.51501e-06
-1.2905e-07
-1.18211e-07
1.53089e-06
1.90611e-08
-1.73553e-07
6.86447e-08
-4.39248e-07
1.39469e-07
-6.2139e-07
2.23303e-07
-7.34053e-07
3.14036e-07
-7.92176e-07
4.07203e-07
-8.11411e-07
4.99788e-07
-8.03889e-07
5.89824e-07
-7.79161e-07
6.76094e-07
-7.43974e-07
7.57898e-07
-7.02953e-07
8.34881e-07
-6.59206e-07
9.06926e-07
-6.14777e-07
9.74064e-07
-5.70988e-07
1.03643e-06
-5.2867e-07
1.09421e-06
-4.88324e-07
1.14764e-06
-4.50229e-07
1.19696e-06
-4.14512e-07
1.24244e-06
-3.81201e-07
1.28433e-06
-3.50254e-07
1.32287e-06
-3.21592e-07
1.35832e-06
-2.95111e-07
1.3909e-06
-2.7069e-07
1.42082e-06
-2.48204e-07
1.4483e-06
-2.27521e-07
1.47352e-06
-2.08517e-07
1.49666e-06
-1.91067e-07
1.51789e-06
-1.75054e-07
1.53737e-06
-1.60366e-07
1.55523e-06
-1.46908e-07
-1.34589e-07
1.5716e-06
1.94958e-08
-1.93049e-07
7.03397e-08
-4.90092e-07
1.42945e-07
-6.93996e-07
2.28863e-07
-8.1997e-07
3.21807e-07
-8.8512e-07
4.1721e-07
-9.06814e-07
5.11992e-07
-8.98672e-07
6.04155e-07
-8.71325e-07
6.92463e-07
-8.32281e-07
7.76204e-07
-7.86694e-07
8.55023e-07
-7.38024e-07
9.28797e-07
-6.88552e-07
9.97561e-07
-6.39751e-07
1.06145e-06
-5.92556e-07
1.12065e-06
-5.4753e-07
1.17541e-06
-5.04988e-07
1.22598e-06
-4.65078e-07
1.27261e-06
-4.27835e-07
1.31558e-06
-3.93217e-07
1.35512e-06
-3.61139e-07
1.3915e-06
-3.31488e-07
1.42494e-06
-3.04131e-07
1.45567e-06
-2.7893e-07
1.48389e-06
-2.55742e-07
1.5098e-06
-2.34427e-07
1.53358e-06
-2.14848e-07
1.5554e-06
-1.96876e-07
1.57542e-06
-1.80386e-07
1.59379e-06
-1.65272e-07
-1.51435e-07
1.61063e-06
1.99335e-08
-2.12982e-07
7.20333e-08
-5.42192e-07
1.46407e-07
-7.68369e-07
2.34378e-07
-9.07941e-07
3.2949e-07
-9.80233e-07
4.27075e-07
-1.0044e-06
5.23995e-07
-9.95592e-07
6.18222e-07
-9.65551e-07
7.08503e-07
-9.22563e-07
7.9412e-07
-8.72311e-07
8.74712e-07
-8.18616e-07
9.50156e-07
-7.63995e-07
1.02049e-06
-7.10082e-07
1.08584e-06
-6.5791e-07
1.14642e-06
-6.08107e-07
1.20246e-06
-5.61027e-07
1.25421e-06
-5.16836e-07
1.30195e-06
-4.75576e-07
1.34595e-06
-4.37209e-07
1.38645e-06
-4.01642e-07
1.42372e-06
-3.68752e-07
1.45798e-06
-3.38395e-07
1.48947e-06
-3.1042e-07
1.5184e-06
-2.8467e-07
1.54496e-06
-2.60991e-07
1.56935e-06
-2.39235e-07
1.59173e-06
-2.19258e-07
1.61227e-06
-2.00924e-07
1.63111e-06
-1.84116e-07
-1.68722e-07
1.6484e-06
2.03725e-08
-2.33355e-07
7.37229e-08
-5.95543e-07
1.4985e-07
-8.44496e-07
2.39847e-07
-9.97938e-07
3.37091e-07
-1.07748e-06
4.36814e-07
-1.10412e-06
5.35826e-07
-1.0946e-06
6.3207e-07
-1.0618e-06
7.24279e-07
-1.01477e-06
8.11727e-07
-9.59759e-07
8.94049e-07
-9.00938e-07
9.71121e-07
-8.41068e-07
1.04298e-06
-7.8194e-07
1.10976e-06
-7.24693e-07
1.17167e-06
-6.70018e-07
1.22895e-06
-6.18307e-07
1.28186e-06
-5.69748e-07
1.33068e-06
-5.24392e-07
1.37567e-06
-4.82198e-07
1.4171e-06
-4.43069e-07
1.45522e-06
-4.06872e-07
1.49027e-06
-3.73452e-07
1.5225e-06
-3.42643e-07
1.5521e-06
-3.14276e-07
1.57929e-06
-2.88183e-07
1.60426e-06
-2.64202e-07
1.62718e-06
-2.42176e-07
1.64821e-06
-2.21957e-07
1.66751e-06
-2.03417e-07
-1.86432e-07
1.68522e-06
2.08111e-08
-2.54166e-07
7.54039e-08
-6.50136e-07
1.53265e-07
-9.22358e-07
2.45258e-07
-1.08993e-06
3.44597e-07
-1.17682e-06
4.46419e-07
-1.20594e-06
5.47485e-07
-1.19567e-06
6.45709e-07
-1.16002e-06
7.39812e-07
-1.10887e-06
8.29059e-07
-1.04901e-06
9.13081e-07
-9.8496e-07
9.91754e-07
-9.19741e-07
1.06511e-06
-8.553e-07
1.1333e-06
-7.92879e-07
1.19652e-06
-7.33237e-07
1.25502e-06
-6.76805e-07
1.30906e-06
-6.23792e-07
1.35893e-06
-5.74257e-07
1.40489e-06
-5.2816e-07
1.44722e-06
-4.85398e-07
1.48617e-06
-4.45827e-07
1.522e-06
-4.0928e-07
1.55494e-06
-3.75579e-07
1.5852e-06
-3.44541e-07
1.613e-06
-3.15984e-07
1.63853e-06
-2.89731e-07
1.66197e-06
-2.65613e-07
1.68348e-06
-2.43469e-07
1.70322e-06
-2.23159e-07
-2.04548e-07
1.72134e-06
2.12477e-08
-2.75414e-07
7.70707e-08
-7.05959e-07
1.56643e-07
-1.00193e-06
2.50597e-07
-1.18388e-06
3.5199e-07
-1.27821e-06
4.55871e-07
-1.30983e-06
5.58953e-07
-1.29875e-06
6.59126e-07
-1.26019e-06
7.55095e-07
-1.20484e-06
8.46117e-07
-1.14003e-06
9.31819e-07
-1.07066e-06
1.01207e-06
-9.99996e-07
1.08692e-06
-9.30143e-07
1.15649e-06
-8.62453e-07
1.221e-06
-7.9775e-07
1.28071e-06
-7.36507e-07
1.33587e-06
-6.78954e-07
1.38677e-06
-6.25158e-07
1.43369e-06
-5.75081e-07
1.4769e-06
-5.28613e-07
1.51668e-06
-4.856e-07
1.55326e-06
-4.45865e-07
1.5869e-06
-4.09214e-07
1.61781e-06
-3.75451e-07
1.6462e-06
-3.44379e-07
1.67228e-06
-3.15809e-07
1.69622e-06
-2.89556e-07
1.7182e-06
-2.65448e-07
1.73837e-06
-2.43331e-07
-2.2306e-07
1.75688e-06
2.16807e-08
-2.97094e-07
7.87173e-08
-7.62995e-07
1.5997e-07
-1.08318e-06
2.55845e-07
-1.27976e-06
3.59247e-07
-1.38161e-06
4.65145e-07
-1.41572e-06
5.70206e-07
-1.40381e-06
6.72296e-07
-1.36228e-06
7.70106e-07
-1.30265e-06
8.62883e-07
-1.23281e-06
9.50249e-07
-1.15803e-06
1.03207e-06
-1.08182e-06
1.10839e-06
-1.00646e-06
1.17934e-06
-9.33404e-07
1.24514e-06
-8.63548e-07
1.30603e-06
-7.97403e-07
1.3623e-06
-7.35223e-07
1.41423e-06
-6.77086e-07
1.4621e-06
-6.22952e-07
1.50619e-06
-5.72705e-07
1.54678e-06
-5.26184e-07
1.58411e-06
-4.83197e-07
1.61843e-06
-4.43538e-07
1.64998e-06
-4.06996e-07
1.67896e-06
-3.7336e-07
1.70558e-06
-3.42426e-07
1.73002e-06
-3.13996e-07
1.75245e-06
-2.87883e-07
1.77305e-06
-2.63924e-07
-2.41958e-07
1.79194e-06
2.21084e-08
-3.19203e-07
8.03375e-08
-8.21224e-07
1.63235e-07
-1.16608e-06
2.60983e-07
-1.37751e-06
3.66346e-07
-1.48697e-06
4.74214e-07
-1.52359e-06
5.81214e-07
-1.51081e-06
6.85189e-07
-1.46626e-06
7.84814e-07
-1.40228e-06
8.79327e-07
-1.32732e-06
9.68342e-07
-1.24704e-06
1.05172e-06
-1.1652e-06
1.1295e-06
-1.08424e-06
1.20182e-06
-1.00572e-06
1.2689e-06
-9.30622e-07
1.33098e-06
-8.59487e-07
1.38835e-06
-7.92596e-07
1.4413e-06
-7.30035e-07
1.49012e-06
-6.71767e-07
1.53508e-06
-6.1767e-07
1.57647e-06
-5.67573e-07
1.61454e-06
-5.21272e-07
1.64955e-06
-4.78546e-07
1.68173e-06
-4.39171e-07
1.71129e-06
-4.02921e-07
1.73844e-06
-3.69576e-07
1.76337e-06
-3.38926e-07
1.78625e-06
-3.1077e-07
1.80726e-06
-2.84931e-07
-2.61238e-07
1.82654e-06
2.2529e-08
-3.41732e-07
8.19246e-08
-8.8062e-07
1.66424e-07
-1.25058e-06
2.65994e-07
-1.47708e-06
3.73262e-07
-1.59424e-06
4.8305e-07
-1.63338e-06
5.91947e-07
-1.61971e-06
6.97772e-07
-1.57208e-06
7.99185e-07
-1.50369e-06
8.95413e-07
-1.42355e-06
9.8606e-07
-1.33769e-06
1.07099e-06
-1.25013e-06
1.15022e-06
-1.16347e-06
1.2239e-06
-1.07941e-06
1.29225e-06
-9.98968e-07
1.35551e-06
-9.22754e-07
1.41398e-06
-8.51066e-07
1.46795e-06
-7.84001e-07
1.5177e-06
-7.21522e-07
1.56354e-06
-6.63503e-07
1.60573e-06
-6.09762e-07
1.64454e-06
-5.60083e-07
1.68022e-06
-5.14233e-07
1.71302e-06
-4.7197e-07
1.74316e-06
-4.33056e-07
1.77084e-06
-3.97255e-07
1.79625e-06
-3.64342e-07
1.81959e-06
-3.34104e-07
1.84101e-06
-3.06349e-07
-2.80894e-07
1.86066e-06
2.29408e-08
-3.64672e-07
8.34719e-08
-9.41151e-07
1.69525e-07
-1.33663e-06
2.70857e-07
-1.57841e-06
3.79971e-07
-1.70336e-06
4.91624e-07
-1.74503e-06
6.02371e-07
-1.73046e-06
7.10008e-07
-1.67972e-06
8.13181e-07
-1.60686e-06
9.111e-07
-1.52147e-06
1.00336e-06
-1.42995e-06
1.08982e-06
-1.33658e-06
1.17049e-06
-1.24415e-06
1.24553e-06
-1.15444e-06
1.31514e-06
-1.06858e-06
1.37958e-06
-9.87198e-07
1.43915e-06
-9.10629e-07
1.49412e-06
-8.38979e-07
1.54481e-06
-7.72212e-07
1.59151e-06
-7.10199e-07
1.6345e-06
-6.52747e-07
1.67404e-06
-5.99628e-07
1.7104e-06
-5.50594e-07
1.74382e-06
-5.0539e-07
1.77453e-06
-4.63762e-07
1.80273e-06
-4.25458e-07
1.82863e-06
-3.9024e-07
1.8524e-06
-3.5788e-07
1.87423e-06
-3.28174e-07
-3.00924e-07
1.89426e-06
2.33418e-08
-3.88014e-07
8.49724e-08
-1.00278e-06
1.72523e-07
-1.42418e-06
2.75553e-07
-1.68144e-06
3.86448e-07
-1.81425e-06
4.99907e-07
-1.85849e-06
6.12454e-07
-1.843e-06
7.21863e-07
-1.78913e-06
8.26761e-07
-1.71176e-06
9.26346e-07
-1.62105e-06
1.0202e-06
-1.52381e-06
1.10817e-06
-1.42455e-06
1.19028e-06
-1.32625e-06
1.26665e-06
-1.23082e-06
1.33752e-06
-1.13944e-06
1.40313e-06
-1.05281e-06
1.46378e-06
-9.71277e-07
1.51976e-06
-8.94962e-07
1.57138e-06
-8.23833e-07
1.61894e-06
-7.57754e-07
1.66271e-06
-6.96523e-07
1.70299e-06
-6.39901e-07
1.74002e-06
-5.87626e-07
1.77405e-06
-5.39427e-07
1.80533e-06
-4.95033e-07
1.83405e-06
-4.54181e-07
1.86042e-06
-4.16616e-07
1.88464e-06
-3.82094e-07
1.90686e-06
-3.504e-07
-3.21322e-07
1.92726e-06
2.373e-08
-4.11744e-07
8.64189e-08
-1.06547e-06
1.75407e-07
-1.51317e-06
2.80064e-07
-1.7861e-06
3.92669e-07
-1.92686e-06
5.0787e-07
-1.9737e-06
6.22162e-07
-1.95729e-06
7.33298e-07
-1.90026e-06
8.39885e-07
-1.81835e-06
9.41106e-07
-1.72227e-06
1.03653e-06
-1.61923e-06
1.12599e-06
-1.51401e-06
1.20951e-06
-1.40977e-06
1.28721e-06
-1.30853e-06
1.35932e-06
-1.21155e-06
1.42609e-06
-1.11958e-06
1.48782e-06
-1.033e-06
1.5448e-06
-9.51942e-07
1.59734e-06
-8.76375e-07
1.64574e-06
-8.06159e-07
1.6903e-06
-7.41084e-07
1.7313e-06
-6.80896e-07
1.76899e-06
-6.25321e-07
1.80364e-06
-5.74073e-07
1.83547e-06
-5.26866e-07
1.86471e-06
-4.83419e-07
1.89156e-06
-4.43463e-07
1.9162e-06
-4.06742e-07
1.93883e-06
-3.73024e-07
-3.42085e-07
1.95959e-06
2.41033e-08
-4.35848e-07
8.78041e-08
-1.12917e-06
1.78162e-07
-1.60353e-06
2.84369e-07
-1.8923e-06
3.98608e-07
-2.0411e-06
5.15484e-07
-2.09057e-06
6.31462e-07
-2.07327e-06
7.44275e-07
-2.01308e-06
8.52511e-07
-1.92658e-06
9.55332e-07
-1.82509e-06
1.0523e-06
-1.71619e-06
1.14323e-06
-1.60495e-06
1.22814e-06
-1.49468e-06
1.30715e-06
-1.38754e-06
1.38048e-06
-1.28488e-06
1.4484e-06
-1.1875e-06
1.51118e-06
-1.09579e-06
1.56915e-06
-1.00991e-06
1.6226e-06
-9.29829e-07
1.67185e-06
-8.55405e-07
1.71718e-06
-7.86419e-07
1.75889e-06
-7.22605e-07
1.79724e-06
-6.63672e-07
1.83249e-06
-6.09322e-07
1.86488e-06
-5.59251e-07
1.89462e-06
-5.13164e-07
1.92193e-06
-4.70776e-07
1.94701e-06
-4.31816e-07
1.97002e-06
-3.96039e-07
-3.63207e-07
1.99114e-06
2.44596e-08
-4.60307e-07
8.91206e-08
-1.19383e-06
1.80775e-07
-1.69518e-06
2.88449e-07
-1.99998e-06
4.04242e-07
-2.15689e-06
5.22718e-07
-2.20905e-06
6.40319e-07
-2.19087e-06
7.54756e-07
-2.12751e-06
8.64593e-07
-2.03642e-06
9.68977e-07
-1.92948e-06
1.06745e-06
-1.81467e-06
1.15982e-06
-1.69732e-06
1.24609e-06
-1.58095e-06
1.32639e-06
-1.46784e-06
1.40093e-06
-1.35942e-06
1.46997e-06
-1.25653e-06
1.5338e-06
-1.15962e-06
1.59274e-06
-1.06884e-06
1.64709e-06
-9.84179e-07
1.69716e-06
-9.05479e-07
1.74326e-06
-8.32517e-07
1.78567e-06
-7.65015e-07
1.82466e-06
-7.02668e-07
1.86051e-06
-6.45162e-07
1.89343e-06
-5.92179e-07
1.92368e-06
-5.43407e-07
1.95145e-06
-4.98546e-07
1.97694e-06
-4.57309e-07
2.00034e-06
-4.19438e-07
-3.8468e-07
2.02181e-06
2.47967e-08
-4.85104e-07
9.03612e-08
-1.2594e-06
1.83231e-07
-1.78805e-06
2.92285e-07
-2.10903e-06
4.09545e-07
-2.27415e-06
5.29543e-07
-2.32904e-06
6.48699e-07
-2.31003e-06
7.647e-07
-2.24352e-06
8.76088e-07
-2.14781e-06
9.81989e-07
-2.03538e-06
1.08193e-06
-1.9146e-06
1.1757e-06
-1.79109e-06
1.26331e-06
-1.66856e-06
1.34487e-06
-1.5494e-06
1.42059e-06
-1.43514e-06
1.49073e-06
-1.32668e-06
1.55559e-06
-1.22448e-06
1.61547e-06
-1.12873e-06
1.6707e-06
-1.03941e-06
1.72159e-06
-9.56364e-07
1.76843e-06
-8.79362e-07
1.81153e-06
-8.08112e-07
1.85116e-06
-7.42296e-07
1.88758e-06
-6.81583e-07
1.92104e-06
-6.25639e-07
1.95177e-06
-5.74138e-07
1.97998e-06
-5.26762e-07
2.00589e-06
-4.83212e-07
2.02966e-06
-4.43212e-07
-4.06497e-07
2.05148e-06
2.51126e-08
-5.10216e-07
9.15184e-08
-1.3258e-06
1.85519e-07
-1.88205e-06
2.95858e-07
-2.21937e-06
4.14493e-07
-2.39278e-06
5.3593e-07
-2.45048e-06
6.56567e-07
-2.43067e-06
7.74067e-07
-2.36102e-06
8.86949e-07
-2.26069e-06
9.94317e-07
-2.14275e-06
1.09568e-06
-2.01596e-06
1.19082e-06
-1.88623e-06
1.27972e-06
-1.75746e-06
1.36251e-06
-1.63218e-06
1.43938e-06
-1.51201e-06
1.51059e-06
-1.39789e-06
1.57645e-06
-1.29034e-06
1.63726e-06
-1.18954e-06
1.69335e-06
-1.09549e-06
1.74503e-06
-1.00804e-06
1.7926e-06
-9.26935e-07
1.83637e-06
-8.51879e-07
1.87661e-06
-7.82538e-07
1.91359e-06
-7.18567e-07
1.94757e-06
-6.59616e-07
1.97877e-06
-6.05342e-07
2.00742e-06
-5.55412e-07
2.03372e-06
-5.09511e-07
2.05786e-06
-4.6735e-07
-4.28646e-07
2.08001e-06
2.54049e-08
-5.35621e-07
9.25851e-08
-1.39298e-06
1.87625e-07
-1.97709e-06
2.9915e-07
-2.3309e-06
4.19064e-07
-2.5127e-06
5.4185e-07
-2.57327e-06
6.63887e-07
-2.5527e-06
7.82815e-07
-2.47994e-06
8.97128e-07
-2.37501e-06
1.00591e-06
-2.25152e-06
1.10864e-06
-2.1187e-06
1.2051e-06
-1.98269e-06
1.29526e-06
-1.84762e-06
1.37923e-06
-1.71615e-06
1.45721e-06
-1.58999e-06
1.52947e-06
-1.47015e-06
1.5963e-06
-1.35716e-06
1.65801e-06
-1.25125e-06
1.71493e-06
-1.15241e-06
1.76737e-06
-1.06048e-06
1.81565e-06
-9.75214e-07
1.86006e-06
-8.96293e-07
1.9009e-06
-8.23375e-07
1.93843e-06
-7.56096e-07
1.9729e-06
-6.94093e-07
2.00457e-06
-6.37003e-07
2.03363e-06
-5.8448e-07
2.06032e-06
-5.36193e-07
2.0848e-06
-4.91837e-07
-4.51115e-07
2.10727e-06
2.56717e-08
-5.61293e-07
9.35545e-08
-1.46087e-06
1.89537e-07
-2.07308e-06
3.02143e-07
-2.4435e-06
4.23233e-07
-2.63379e-06
5.47274e-07
-2.69731e-06
6.70626e-07
-2.67606e-06
7.90905e-07
-2.60022e-06
9.06578e-07
-2.49068e-06
1.0167e-06
-2.36165e-06
1.12075e-06
-2.22274e-06
1.21847e-06
-2.08042e-06
1.30984e-06
-1.93899e-06
1.39495e-06
-1.80127e-06
1.47401e-06
-1.66905e-06
1.54727e-06
-1.54341e-06
1.61503e-06
-1.42493e-06
1.67761e-06
-1.31383e-06
1.73532e-06
-1.21013e-06
1.7885e-06
-1.11366e-06
1.83746e-06
-1.02417e-06
1.8825e-06
-9.4133e-07
1.9239e-06
-8.64782e-07
1.96196e-06
-7.94149e-07
1.99691e-06
-7.29047e-07
2.02901e-06
-6.69102e-07
2.05848e-06
-6.13949e-07
2.08553e-06
-5.63241e-07
2.11035e-06
-5.16659e-07
-4.73889e-07
2.13312e-06
2.59108e-08
-5.87204e-07
9.44197e-08
-1.52937e-06
1.91242e-07
-2.1699e-06
3.0482e-07
-2.55708e-06
4.26978e-07
-2.75594e-06
5.52173e-07
-2.8225e-06
6.76748e-07
-2.80063e-06
7.98293e-07
-2.72177e-06
9.15248e-07
-2.60763e-06
1.02665e-06
-2.47305e-06
1.13194e-06
-2.32803e-06
1.23087e-06
-2.17935e-06
1.32339e-06
-2.0315e-06
1.40959e-06
-1.88747e-06
1.48967e-06
-1.74913e-06
1.56389e-06
-1.61763e-06
1.63254e-06
-1.49358e-06
1.69595e-06
-1.37724e-06
1.75443e-06
-1.26861e-06
1.80831e-06
-1.16754e-06
1.85791e-06
-1.07377e-06
1.90354e-06
-9.8696e-07
1.94549e-06
-9.06733e-07
1.98404e-06
-8.32697e-07
2.01945e-06
-7.64456e-07
2.05196e-06
-7.01616e-07
2.08181e-06
-6.43796e-07
2.1092e-06
-5.90635e-07
2.13434e-06
-5.41796e-07
-4.96951e-07
2.1574e-06
2.61203e-08
-6.13324e-07
9.51744e-08
-1.59843e-06
1.9273e-07
-2.26745e-06
3.07164e-07
-2.67151e-06
4.30277e-07
-2.87906e-06
5.5652e-07
-2.94875e-06
6.82219e-07
-2.92633e-06
8.04938e-07
-2.84448e-06
9.2309e-07
-2.72579e-06
1.03569e-06
-2.58564e-06
1.14215e-06
-2.4345e-06
1.24222e-06
-2.27941e-06
1.33582e-06
-2.12511e-06
1.42306e-06
-1.97471e-06
1.50411e-06
-1.83019e-06
1.57924e-06
-1.69276e-06
1.64873e-06
-1.56308e-06
1.71292e-06
-1.44142e-06
1.77212e-06
-1.32781e-06
1.82667e-06
-1.22209e-06
1.87688e-06
-1.12398e-06
1.92306e-06
-1.03315e-06
1.96552e-06
-9.49193e-07
2.00454e-06
-8.71713e-07
2.04037e-06
-8.00291e-07
2.07328e-06
-7.34518e-07
2.10348e-06
-6.73998e-07
2.1312e-06
-6.18352e-07
2.15663e-06
-5.67228e-07
-5.20283e-07
2.17996e-06
2.62984e-08
-6.39622e-07
9.58127e-08
-1.66794e-06
1.93989e-07
-2.36563e-06
3.09159e-07
-2.78668e-06
4.3311e-07
-3.00301e-06
5.60289e-07
-3.07592e-06
6.87005e-07
-3.05304e-06
8.10798e-07
-2.96828e-06
9.30055e-07
-2.84504e-06
1.04376e-06
-2.69934e-06
1.15132e-06
-2.54205e-06
1.25244e-06
-2.38054e-06
1.34706e-06
-2.21973e-06
1.43526e-06
-2.06291e-06
1.51723e-06
-1.91215e-06
1.5932e-06
-1.76873e-06
1.66349e-06
-1.63336e-06
1.7284e-06
-1.50634e-06
1.78828e-06
-1.38769e-06
1.84344e-06
-1.27725e-06
1.89422e-06
-1.17476e-06
1.94093e-06
-1.07985e-06
1.98386e-06
-9.92128e-07
2.02331e-06
-9.1116e-07
2.05954e-06
-8.36519e-07
2.0928e-06
-7.67779e-07
2.12333e-06
-7.04527e-07
2.15134e-06
-6.46367e-07
2.17705e-06
-5.92931e-07
-5.4386e-07
2.20063e-06
2.64432e-08
-6.66066e-07
9.6329e-08
-1.73783e-06
1.9501e-07
-2.46431e-06
3.10793e-07
-2.90247e-06
4.35458e-07
-3.12767e-06
5.63453e-07
-3.20392e-06
6.91073e-07
-3.18066e-06
8.15833e-07
-3.09304e-06
9.36091e-07
-2.9653e-06
1.05081e-06
-2.81406e-06
1.15937e-06
-2.65062e-06
1.26147e-06
-2.48264e-06
1.35703e-06
-2.31529e-06
1.44612e-06
-2.152e-06
1.52892e-06
-1.99495e-06
1.60568e-06
-1.84549e-06
1.6767e-06
-1.70438e-06
1.74229e-06
-1.57193e-06
1.80278e-06
-1.44818e-06
1.85851e-06
-1.33299e-06
1.90981e-06
-1.22606e-06
1.95699e-06
-1.12704e-06
2.00036e-06
-1.0355e-06
2.0402e-06
-9.51002e-07
2.07679e-06
-8.73106e-07
2.11038e-06
-8.01367e-07
2.1412e-06
-7.35352e-07
2.16949e-06
-6.74651e-07
2.19543e-06
-6.18879e-07
-5.6766e-07
2.21923e-06
2.65532e-08
-6.92619e-07
9.67184e-08
-1.80799e-06
1.95784e-07
-2.56338e-06
3.1205e-07
-3.01873e-06
4.37301e-07
-3.25292e-06
5.65988e-07
-3.33261e-06
6.94391e-07
-3.30907e-06
8.20001e-07
-3.21865e-06
9.41151e-07
-3.08645e-06
1.05677e-06
-2.92968e-06
1.16624e-06
-2.76008e-06
1.26922e-06
-2.58562e-06
1.36563e-06
-2.4117e-06
1.45553e-06
-2.2419e-06
1.5391e-06
-2.07851e-06
1.61657e-06
-1.92297e-06
1.68825e-06
-1.77605e-06
1.75444e-06
-1.63812e-06
1.8155e-06
-1.50923e-06
1.87174e-06
-1.38923e-06
1.92351e-06
-1.27783e-06
1.97112e-06
-1.17464e-06
2.01487e-06
-1.07925e-06
2.05506e-06
-9.91194e-07
2.09197e-06
-9.10012e-07
2.12584e-06
-8.35243e-07
2.15693e-06
-7.66439e-07
2.18545e-06
-7.03173e-07
2.21161e-06
-6.45042e-07
-5.91654e-07
2.23561e-06
2.66269e-08
-7.19246e-07
9.69762e-08
-1.87834e-06
1.96303e-07
-2.6627e-06
3.1292e-07
-3.13535e-06
4.38623e-07
-3.37863e-06
5.6787e-07
-3.46185e-06
6.96928e-07
-3.43813e-06
8.23264e-07
-3.34498e-06
9.45185e-07
-3.20837e-06
1.0616e-06
-3.0461e-06
1.17186e-06
-2.87034e-06
1.27563e-06
-2.68939e-06
1.37279e-06
-2.50887e-06
1.46341e-06
-2.33252e-06
1.54765e-06
-2.16275e-06
1.62576e-06
-2.00107e-06
1.69802e-06
-1.84831e-06
1.76475e-06
-1.70486e-06
1.8263e-06
-1.57078e-06
1.88299e-06
-1.44593e-06
1.93517e-06
-1.33e-06
1.98315e-06
-1.22262e-06
2.02724e-06
-1.12334e-06
2.06773e-06
-1.03169e-06
2.10492e-06
-9.47193e-07
2.13904e-06
-8.69367e-07
2.17035e-06
-7.9775e-07
2.19907e-06
-7.31896e-07
2.22542e-06
-6.71387e-07
-6.15813e-07
2.24958e-06
2.66631e-08
-7.45909e-07
9.70988e-08
-1.94878e-06
1.9656e-07
-2.76217e-06
3.13392e-07
-3.25218e-06
4.39408e-07
-3.50464e-06
5.69077e-07
-3.59152e-06
6.98653e-07
-3.5677e-06
8.25582e-07
-3.47191e-06
9.48146e-07
-3.33094e-06
1.06523e-06
-3.16319e-06
1.17617e-06
-2.98128e-06
1.28061e-06
-2.79383e-06
1.37842e-06
-2.60668e-06
1.46966e-06
-2.42376e-06
1.55448e-06
-2.24758e-06
1.63313e-06
-2.07972e-06
1.70589e-06
-1.92107e-06
1.77309e-06
-1.77206e-06
1.83506e-06
-1.63275e-06
1.89214e-06
-1.503e-06
1.94466e-06
-1.38252e-06
1.99295e-06
-1.27091e-06
2.03732e-06
-1.16771e-06
2.07807e-06
-1.07244e-06
2.11547e-06
-9.846e-07
2.1498e-06
-9.03696e-07
2.1813e-06
-8.29244e-07
2.21019e-06
-7.60785e-07
2.23668e-06
-6.97879e-07
-6.40104e-07
2.26097e-06
2.66606e-08
-7.72569e-07
9.70828e-08
-2.0192e-06
1.96549e-07
-2.86163e-06
3.13455e-07
-3.36909e-06
4.39642e-07
-3.63083e-06
5.69589e-07
-3.72147e-06
6.9954e-07
-3.69765e-06
8.26919e-07
-3.59929e-06
9.49989e-07
-3.45401e-06
1.06761e-06
-3.28081e-06
1.1791e-06
-3.09277e-06
1.28409e-06
-2.89881e-06
1.38244e-06
-2.70503e-06
1.47419e-06
-2.51551e-06
1.55949e-06
-2.33288e-06
1.63859e-06
-2.15881e-06
1.71176e-06
-1.99425e-06
1.77934e-06
-1.83963e-06
1.84165e-06
-1.69506e-06
1.89903e-06
-1.56039e-06
1.95183e-06
-1.43532e-06
2.00036e-06
-1.31945e-06
2.04496e-06
-1.2123e-06
2.08591e-06
-1.11339e-06
2.12349e-06
-1.02218e-06
2.15797e-06
-9.38181e-07
2.18961e-06
-8.60878e-07
2.21862e-06
-7.89797e-07
2.24522e-06
-7.24482e-07
-6.64494e-07
2.26961e-06
2.66187e-08
-7.99188e-07
9.69256e-08
-2.08951e-06
1.96265e-07
-2.96097e-06
3.13103e-07
-3.48592e-06
4.39313e-07
-3.75704e-06
5.69387e-07
-3.85154e-06
6.99561e-07
-3.82783e-06
8.27241e-07
-3.72697e-06
9.50669e-07
-3.57744e-06
1.06869e-06
-3.39883e-06
1.1806e-06
-3.20467e-06
1.286e-06
-3.00422e-06
1.38476e-06
-2.8038e-06
1.47691e-06
-2.60765e-06
1.56258e-06
-2.41856e-06
1.64202e-06
-2.23825e-06
1.71551e-06
-2.06774e-06
1.78337e-06
-1.90749e-06
1.84593e-06
-1.75762e-06
1.90355e-06
-1.618e-06
1.95655e-06
-1.48832e-06
2.00526e-06
-1.36816e-06
2.05001e-06
-1.25706e-06
2.0911e-06
-1.15447e-06
2.1288e-06
-1.05989e-06
2.1634e-06
-9.72773e-07
2.19512e-06
-8.92605e-07
2.22422e-06
-8.18891e-07
2.25089e-06
-7.51156e-07
-6.88944e-07
2.27534e-06
2.65366e-08
-8.25725e-07
9.66251e-08
-2.1596e-06
1.95704e-07
-3.06005e-06
3.12327e-07
-3.60255e-06
4.38409e-07
-3.88312e-06
5.68454e-07
-3.98159e-06
6.98692e-07
-3.95806e-06
8.26515e-07
-3.85479e-06
9.50145e-07
-3.70107e-06
1.06841e-06
-3.5171e-06
1.18059e-06
-3.31685e-06
1.28627e-06
-3.10991e-06
1.38531e-06
-2.90284e-06
1.47773e-06
-2.70006e-06
1.56366e-06
-2.50449e-06
1.64333e-06
-2.31792e-06
1.71703e-06
-2.14144e-06
1.78507e-06
-1.97553e-06
1.8478e-06
-1.82035e-06
1.90556e-06
-1.67576e-06
1.95868e-06
-1.54144e-06
2.0075e-06
-1.41699e-06
2.05234e-06
-1.3019e-06
2.0935e-06
-1.19564e-06
2.13127e-06
-1.09766e-06
2.16592e-06
-1.00742e-06
2.19769e-06
-9.24376e-07
2.22682e-06
-8.4802e-07
2.25352e-06
-7.77858e-07
-7.13417e-07
2.27799e-06
2.64137e-08
-8.52138e-07
9.61801e-08
-2.22936e-06
1.94863e-07
-3.15873e-06
3.11123e-07
-3.71881e-06
4.36921e-07
-4.00892e-06
5.66776e-07
-4.11144e-06
6.96913e-07
-4.0882e-06
8.2471e-07
-3.98259e-06
9.48378e-07
-3.82473e-06
1.06673e-06
-3.63545e-06
1.17902e-06
-3.42914e-06
1.28484e-06
-3.21572e-06
1.38402e-06
-3.00202e-06
1.47657e-06
-2.79261e-06
1.56262e-06
-2.59054e-06
1.64241e-06
-2.39771e-06
1.71621e-06
-2.21524e-06
1.78434e-06
-2.04366e-06
1.84713e-06
-1.88315e-06
1.90494e-06
-1.73357e-06
1.95811e-06
-1.59461e-06
2.00696e-06
-1.46584e-06
2.05181e-06
-1.34675e-06
2.09299e-06
-1.23681e-06
2.13076e-06
-1.13543e-06
2.1654e-06
-1.04206e-06
2.19716e-06
-9.56138e-07
2.22628e-06
-8.77137e-07
2.25296e-06
-8.04545e-07
-7.37873e-07
2.27742e-06
2.62499e-08
-8.78388e-07
9.55898e-08
-2.2987e-06
1.93741e-07
-3.25688e-06
3.09487e-07