/*--------------------------------*- C++ -*----------------------------------*\
| =========                 |                                                 |
| \\      /  F ield         | OpenFOAM: The Open Source CFD Toolbox           |
|  \\    /   O peration     | Version:  2312                                  |
|   \\  /    A nd           | Website:  www.openfoam.com                      |
|    \\/     M anipulation  |                                                 |
\*---------------------------------------------------------------------------*/
FoamFile
{
    version     2.0;
    format      ascii;
    arch        "LSB;label=32;scalar=64";
    class       volScalarField;
    location    "20000";
    object      Pk;
}
// * * * * * * * * * * * * * * * * * * * * * * * * * * * * * * * * * * * * * //

dimensions      [0 2 -3 0 0 0 0];

internalField   nonuniform List<scalar> 
29400
(
247.235
651.599
1249.86
1911.96
2598.42
3228.12
3780.82
4251.01
4644.05
4970.03
5239.44
5461.93
5645.95
5798.6
5925.73
6032.1
6121.57
6197.23
6261.5
6316.28
6363.18
6403.53
6438.36
6468.53
6494.75
6517.61
6537.6
6555.3
6570.72
6584.15
5.39827
20.3296
52.0504
92.7204
141.29
194.323
248.865
303.211
356.38
407.787
457.098
504.124
548.765
590.973
630.739
668.079
703.03
735.643
765.982
794.126
820.165
844.202
866.35
886.731
905.471
922.708
938.561
953.17
966.607
979.927
35.5403
54.0185
114.552
160.67
206.886
256.294
310.525
369.63
433.049
499.828
568.873
639.078
709.395
778.881
846.731
912.297
975.094
1034.79
1091.19
1144.17
1193.75
1239.99
1283.01
1322.93
1359.93
1394.17
1425.83
1455.2
1482.08
1512.36
123.044
174.472
343.781
408.969
441.151
462.161
482.382
505.835
534.111
567.372
604.927
645.601
687.99
730.679
772.409
812.175
849.278
883.312
914.1
941.642
966.099
987.717
1006.77
1023.52
1038.26
1051.24
1062.7
1072.2
1079.55
1088.38
246.235
329.083
516.588
605.817
659.632
697.466
730.158
762.578
797.075
834.403
874.328
916.021
958.355
1000.15
1040.35
1078.14
1112.95
1144.48
1172.65
1197.55
1219.39
1238.42
1254.95
1269.25
1281.63
1292.34
1301.61
1309.66
1316.69
1322
337.252
364.353
578.038
686.811
754.958
805.189
849.752
893.693
939.628
988.38
1039.63
1092.36
1145.2
1196.71
1245.63
1290.97
1332.09
1368.72
1400.83
1428.57
1452.25
1472.26
1489.05
1503.04
1514.62
1524.17
1532.01
1538.42
1543.7
1544.8
356.267
383.654
608.826
731.702
814.169
877.981
935.62
992.41
1051.01
1112.34
1176.08
1241.12
1305.95
1368.97
1428.72
1484.09
1534.35
1579.16
1618.26
1651.7
1680.3
1704.55
1724.94
1741.98
1756.13
1767.83
1777.47
1785.36
1791.87
1792.61
360.75
389.139
615.352
747.178
841.556
918.153
988.756
1058.42
1129.8
1203.78
1279.99
1357.26
1433.96
1508.37
1578.9
1644.31
1703.8
1756.96
1803.73
1844.38
1879.36
1909.16
1934.37
1955.55
1973.25
1987.99
2000.2
2010.27
2018.62
2019.79
356.138
385.477
605.73
742.472
846.102
933.62
1015.79
1097.2
1180.28
1265.86
1353.51
1441.99
1529.6
1614.49
1694.99
1769.78
1837.96
1899.12
1953.22
2000.51
2041.39
2076.46
2106.33
2131.63
2152.97
2170.89
2185.91
2198.44
2208.97
2211.25
348.256
376.066
587.199
726.176
836.594
932.778
1024.42
1115.58
1208.48
1303.82
1401.12
1499.08
1595.92
1689.72
1778.73
1861.56
1937.27
2005.39
2065.86
2118.94
2165.1
2204.93
2239.08
2268.23
2292.99
2313.98
2331.71
2346.68
2359.38
2363.04
337.299
363.785
564.851
704.44
819.674
922.438
1021.45
1120.28
1220.96
1324.06
1429.05
1534.58
1638.82
1739.79
1835.69
1925.05
2006.92
2080.79
2146.59
2204.57
2255.21
2299.13
2336.99
2369.49
2397.29
2421.01
2441.21
2458.4
2473.13
2478.21
324.9
350.603
541.63
680.856
799.467
907.149
1011.74
1116.41
1223
1332
1442.84
1554.13
1664.01
1770.46
1871.64
1966.06
2052.7
2131.06
2201.04
2262.9
2317.11
2364.3
2405.16
2440.4
2470.69
2496.68
2518.93
2537.99
2554.44
2560.8
312.37
337.583
518.898
657.112
778.073
889.436
998.236
1107.26
1218.22
1331.55
1446.65
1562.13
1676.11
1786.55
1891.58
1989.69
2079.85
2161.52
2234.61
2299.36
2356.26
2405.94
2449.08
2486.42
2518.64
2546.4
2570.27
2590.82
2608.63
2616.07
300.239
325.16
497.118
633.819
756.361
870.481
982.439
1094.68
1208.8
1325.2
1443.28
1561.66
1678.46
1791.64
1899.31
1999.96
2092.54
2176.51
2251.76
2318.55
2377.35
2428.79
2473.57
2512.43
2546.05
2575.09
2600.16
2621.81
2640.64
2648.94
288.708
313.431
476.355
611.119
734.609
850.749
965.044
1079.61
1195.94
1314.42
1434.46
1554.71
1673.29
1788.19
1897.52
1999.75
2093.86
2179.28
2255.92
2324.01
2384.04
2436.63
2482.49
2522.36
2556.92
2586.84
2612.72
2635.13
2654.68
2663.61
277.795
302.354
456.553
588.998
712.877
830.4
946.34
1062.49
1180.26
1300.02
1421.2
1542.48
1662.02
1777.82
1888
1991.07
2085.97
2172.16
2249.54
2318.34
2379.05
2432.3
2478.79
2519.24
2554.36
2584.81
2611.2
2634.09
2654.08
2663.46
267.438
291.846
437.634
567.414
691.162
809.489
926.458
1043.56
1162.11
1282.48
1404.12
1525.74
1645.56
1761.59
1871.98
1975.25
2070.36
2156.77
2234.37
2303.41
2364.37
2417.86
2464.6
2505.31
2540.69
2571.4
2598.03
2621.16
2641.39
2651.05
257.56
281.829
419.528
546.331
669.46
788.049
905.486
1022.96
1141.72
1262.11
1383.62
1505.02
1624.54
1740.24
1850.31
1953.26
2048.1
2134.27
2211.69
2280.58
2341.42
2394.84
2441.54
2482.24
2517.63
2548.36
2575.04
2598.24
2618.53
2628.35
248.094
272.234
402.183
525.727
647.774
766.118
883.5
1000.83
1119.27
1239.17
1360.06
1480.72
1599.45
1714.35
1823.63
1925.85
2020
2105.57
2182.44
2250.87
2311.31
2364.4
2410.82
2451.28
2486.48
2517.07
2543.63
2566.74
2586.97
2596.84
238.986
263.006
385.552
505.59
626.122
743.742
860.587
977.295
1094.96
1213.91
1333.71
1453.2
1570.71
1684.4
1792.51
1893.62
1986.75
2071.38
2147.42
2215.11
2274.91
2327.44
2373.38
2413.44
2448.29
2478.58
2504.9
2527.8
2547.85
2557.7
230.19
254.097
369.598
485.916
604.528
720.978
836.839
952.492
1068.95
1186.55
1304.87
1422.8
1538.73
1650.84
1757.43
1857.11
1948.91
2032.34
2107.3
2174.03
2232.98
2284.77
2330.06
2369.56
2403.92
2433.8
2459.75
2482.35
2502.14
2511.89
221.671
245.469
354.288
466.709
583.025
697.89
812.356
926.56
1041.44
1157.32
1273.81
1389.84
1503.85
1614.08
1718.86
1816.83
1907.05
1989.03
2062.69
2128.25
2186.18
2237.06
2281.56
2320.36
2354.13
2383.48
2408.98
2431.18
2450.63
2460.24
213.402
237.088
339.593
447.973
561.651
674.548
787.243
899.642
1012.61
1126.45
1240.8
1354.64
1466.45
1574.52
1677.22
1773.23
1861.64
1941.97
2014.14
2078.37
2135.11
2184.94
2228.52
2266.52
2299.58
2328.31
2353.28
2375.02
2394.05
2403.46
205.357
228.926
325.484
429.718
540.45
651.028
761.609
871.881
982.633
1094.15
1206.1
1317.48
1426.84
1532.52
1632.92
1726.77
1813.17
1891.66
1962.17
2024.91
2080.32
2128.98
2171.53
2208.62
2240.88
2268.92
2293.28
2314.48
2333.04
2342.21
197.518
220.959
311.937
411.955
519.468
627.409
735.565
843.424
951.697
1060.65
1169.95
1278.66
1385.36
1488.43
1586.34
1677.84
1762.06
1838.56
1907.25
1968.37
2022.34
2069.72
2111.13
2147.22
2178.61
2205.87
2229.55
2250.16
2268.19
2277.08
189.87
213.169
298.927
394.694
498.752
603.77
709.222
814.414
919.975
1026.14
1132.61
1238.45
1342.3
1442.6
1537.85
1626.83
1708.73
1783.09
1849.84
1909.22
1961.63
2007.63
2047.82
2082.83
2113.26
2139.69
2162.63
2182.59
2200.04
2208.62
182.398
205.539
286.428
377.947
478.351
580.195
682.695
784.992
887.638
990.837
1094.29
1197.1
1297.95
1395.32
1487.76
1574.11
1653.54
1725.64
1790.35
1847.88
1898.64
1943.17
1982.05
2015.91
2045.33
2070.86
2093.01
2112.27
2129.1
2137.32
175.094
198.057
274.42
361.724
458.313
556.764
656.092
755.297
854.851
954.924
1055.21
1154.86
1252.58
1346.89
1436.41
1519.99
1596.86
1666.6
1729.16
1784.75
1833.77
1876.75
1914.27
1946.91
1975.25
1999.83
2021.13
2039.65
2055.82
2063.66
167.949
190.712
262.878
346.034
438.686
533.558
629.524
725.463
821.774
918.585
1015.59
1111.96
1206.43
1297.59
1384.08
1464.81
1539.01
1606.3
1666.63
1720.2
1767.42
1808.78
1844.86
1876.23
1903.44
1927.02
1947.44
1965.18
1980.64
1988.07
160.958
183.498
251.783
330.884
419.515
510.657
603.096
695.622
788.559
881.995
975.62
1068.61
1159.75
1247.67
1331.05
1408.83
1480.29
1545.06
1603.09
1654.58
1699.93
1739.62
1774.21
1804.25
1830.29
1852.83
1872.33
1889.25
1903.98
1910.96
154.115
176.411
241.113
316.279
400.843
488.133
576.91
665.897
755.353
845.32
935.48
1025.02
1112.76
1197.37
1277.57
1352.35
1421
1483.18
1538.85
1588.21
1631.63
1669.61
1702.66
1731.34
1756.16
1777.63
1796.18
1812.25
1826.22
1832.74
147.418
169.446
230.85
302.222
382.708
466.06
551.064
636.409
722.293
808.718
895.346
981.379
1065.66
1146.9
1223.88
1295.6
1361.4
1420.95
1474.21
1521.39
1562.85
1599.07
1630.55
1657.83
1681.41
1701.78
1719.35
1734.55
1747.73
1753.77
140.866
162.604
220.975
288.715
365.145
444.503
525.649
607.269
689.512
772.334
855.382
937.863
1018.65
1096.49
1170.2
1238.83
1301.74
1358.62
1409.45
1454.41
1493.88
1528.31
1558.19
1584.05
1606.37
1625.61
1642.18
1656.49
1668.87
1674.42
134.457
155.884
211.473
275.758
348.187
423.525
500.752
578.585
657.133
736.309
815.742
894.641
971.906
1046.32
1116.74
1182.26
1242.26
1296.45
1344.81
1387.54
1424.99
1457.61
1485.89
1510.31
1531.35
1549.45
1565.01
1578.42
1589.99
1595.03
128.192
149.289
202.328
263.346
331.86
403.18
476.452
550.456
625.271
700.772
776.567
851.869
925.598
996.573
1063.69
1126.09
1183.17
1234.65
1280.54
1321.03
1356.46
1387.27
1413.92
1436.89
1456.65
1473.61
1488.15
1500.65
1511.41
1515.94
122.071
142.821
193.527
251.477
316.186
383.52
452.824
522.974
594.033
665.844
737.992
809.691
879.883
947.421
1011.24
1070.51
1124.67
1173.46
1216.88
1255.12
1288.53
1317.53
1342.56
1364.09
1382.56
1398.38
1411.91
1423.49
1433.44
1437.47
116.097
136.484
185.057
240.144
301.184
364.588
429.934
496.224
563.52
631.637
700.141
768.244
834.909
899.022
959.561
1015.72
1066.97
1113.08
1154.04
1190.05
1221.45
1248.64
1272.06
1292.16
1309.35
1324.04
1336.56
1347.25
1356.39
1359.92
110.27
130.283
176.909
229.341
286.868
346.424
407.843
470.284
533.823
598.255
663.128
727.653
790.812
851.522
908.8
961.874
1010.24
1053.69
1092.21
1126.02
1155.43
1180.84
1202.68
1221.36
1237.3
1250.87
1262.4
1272.2
1280.55
1283.59
104.594
124.221
169.074
219.061
273.248
329.061
386.604
445.225
505.027
565.795
627.06
688.034
747.717
805.059
859.112
909.137
954.662
995.478
1031.61
1063.24
1090.7
1114.36
1134.63
1151.93
1166.64
1179.12
1189.68
1198.62
1206.19
1208.75
99.0705
118.305
161.543
209.296
260.334
312.527
366.268
421.111
477.209
534.344
592.034
649.494
705.743
759.76
810.633
857.656
900.382
938.619
972.393
1001.9
1027.44
1049.39
1068.14
1084.09
1097.6
1109.02
1118.65
1126.75
1133.57
1135.68
93.7013
112.538
154.311
200.037
248.128
296.848
346.875
398.001
450.44
503.982
558.142
612.134
664.998
715.744
763.493
807.57
847.554
883.267
914.742
942.172
965.852
986.142
1003.42
1018.06
1030.41
1040.81
1049.53
1056.83
1062.94
1064.62
88.4887
106.925
147.372
191.278
236.636
282.042
328.465
375.948
424.784
474.786
525.465
576.045
625.584
673.12
717.809
759.007
796.315
829.571
858.811
884.226
906.103
924.787
940.641
954.022
965.268
974.686
982.536
989.068
994.501
995.788
83.4347
101.472
140.723
183.01
225.856
268.129
311.072
354.999
400.301
446.822
494.082
541.313
587.593
631.991
673.693
712.087
746.794
777.665
804.742
828.212
848.352
865.494
879.983
892.162
902.349
910.835
917.864
923.671
928.466
929.388
78.5408
96.1825
134.361
175.225
215.79
255.122
294.728
335.2
377.045
420.156
464.065
508.017
551.113
592.451
631.248
666.918
699.106
727.674
752.668
774.268
792.744
808.411
821.6
832.635
841.819
849.424
855.68
860.809
865.008
865.598
73.8081
91.0601
128.282
167.917
206.436
243.035
279.46
316.591
355.068
394.845
435.479
476.231
516.225
554.587
590.566
623.604
653.361
679.713
702.707
722.519
739.407
753.672
765.629
775.584
783.822
790.601
796.135
800.633
804.282
804.575
69.2368
86.1069
122.485
161.079
197.791
231.879
265.295
299.211
334.419
370.948
408.389
446.024
483.003
518.482
551.737
582.235
609.656
633.884
654.967
673.075
688.455
701.394
712.189
721.129
728.483
734.491
739.355
743.27
746.415
746.445
64.8257
81.3205
116.969
154.707
189.85
221.662
252.258
283.1
315.144
348.519
382.854
417.463
451.52
484.211
514.839
542.897
568.08
590.279
609.543
626.035
639.99
651.679
661.383
669.374
675.905
681.199
685.446
688.827
691.511
691.312
60.5726
76.696
111.733
148.8
182.609
212.391
240.373
268.292
297.291
327.61
358.934
390.61
421.842
451.844
479.948
505.667
528.711
548.979
566.518
581.482
594.095
604.612
613.297
620.405
626.172
630.809
634.489
637.384
639.651
639.255
56.4777
72.234
106.778
143.351
176.058
204.07
229.658
254.824
280.906
308.275
336.687
365.528
394.034
421.45
447.133
470.615
491.623
510.058
525.964
539.489
550.842
560.262
567.998
574.288
579.351
583.384
586.547
589.002
590.893
590.327
52.543
67.9456
102.105
138.345
170.184
196.696
220.131
242.728
266.033
290.567
316.168
342.275
368.158
393.091
416.456
437.807
456.878
473.577
487.944
500.115
510.288
518.687
525.542
531.075
535.491
538.97
541.664
543.719
545.272
544.561
48.7705
63.8638
97.728
133.738
164.973
190.263
211.803
232.035
252.716
274.537
297.436
320.911
344.274
366.827
387.979
407.299
424.534
439.592
452.508
463.41
472.481
479.928
485.966
490.801
494.622
497.597
499.863
501.559
502.806
501.973
45.1601
59.9601
93.6186
129.557
160.414
184.757
204.674
222.768
240.997
260.236
280.545
301.495
322.44
342.716
361.756
379.146
394.641
408.149
419.701
429.414
437.455
444.017
449.299
453.49
456.765
459.279
461.157
462.527
463.498
462.559
41.7128
56.2182
89.7521
125.823
156.493
180.155
198.737
214.94
230.908
247.711
265.55
284.081
302.712
320.813
337.84
353.396
367.243
379.289
389.558
398.156
405.236
410.975
415.556
419.153
421.927
424.018
425.542
426.617
427.338
426.306
38.4371
52.6879
86.154
122.483
153.186
176.421
193.969
208.553
222.474
237.002
252.499
268.722
285.142
301.167
316.279
330.093
342.38
353.046
362.109
369.661
375.843
380.816
384.747
387.794
390.104
391.807
393.008
393.814
394.305
393.191
35.3415
49.3763
82.8353
119.53
150.461
173.51
190.33
203.586
215.7
228.135
241.431
255.465
269.779
283.826
297.114
309.275
320.085
329.449
337.375
343.946
349.287
353.545
356.87
359.407
361.289
362.634
363.537
364.096
364.373
363.183
32.4343
46.2964
79.8203
116.959
148.281
171.372
187.765
200.001
210.572
221.121
232.372
244.342
256.659
268.826
280.382
290.974
300.385
308.517
315.373
321.021
325.573
329.161
331.92
333.982
335.466
336.478
337.106
337.435
337.513
336.25
29.7224
43.46
77.1781
114.79
146.565
169.951
186.205
197.733
207.048
215.942
225.328
235.373
245.806
256.194
266.107
275.212
283.298
290.266
296.11
300.888
304.699
307.658
309.887
311.504
312.615
313.317
313.687
313.802
313.691
312.355
27.2119
40.878
74.837
113
145.384
169.202
185.574
196.697
205.057
212.553
220.275
228.551
237.227
245.939
254.301
261.999
268.831
274.697
279.586
283.543
286.654
289.021
290.752
291.95
292.713
293.123
293.251
293.164
292.872
291.463
24.9055
38.5627
72.8521
111.603
144.709
169.082
185.791
196.792
204.498
210.874
217.158
223.843
230.9
238.05
244.955
251.327
256.975
261.802
265.787
268.97
271.42
273.229
274.49
275.295
275.728
275.863
275.763
275.485
275.019
273.534
22.7945
36.5171
71.3122
110.68
144.502
169.56
186.787
197.911
205.254
210.794
215.887
221.177
226.773
232.486
238.036
243.168
247.705
251.552
254.686
257.138
258.966
260.248
261.065
261.499
261.622
261.498
261.182
260.724
260.089
258.525
20.8714
34.7306
70.1363
110.169
144.874
170.646
188.513
199.959
207.196
212.179
216.337
220.451
224.759
229.174
233.482
237.466
240.967
243.898
246.235
247.999
249.241
250.027
250.429
250.513
250.344
249.977
249.46
248.831
248.033
246.389
18.4233
33.2045
69.4297
110.187
145.784
172.379
190.947
202.861
210.207
214.887
218.366
221.529
224.737
228.007
231.197
234.135
236.683
238.766
240.36
241.483
242.177
242.5
242.511
242.27
241.829
241.236
240.531
239.741
238.788
237.064
15.4753
30.6083
69.1812
110.842
147.307
174.811
194.104
206.58
214.197
218.789
221.823
224.258
226.561
228.849
231.056
233.057
234.743
236.051
236.962
237.492
237.679
237.572
237.222
236.679
235.988
235.186
234.309
233.373
232.273
230.47
12.8954
27.4052
69.3054
112.033
149.573
178.018
198.043
211.128
219.119
223.786
226.573
228.484
230.071
231.541
232.903
234.082
235.002
235.615
235.907
235.897
235.62
235.118
234.437
233.618
232.699
231.711
230.679
229.61
228.377
226.5
10.6621
24.4535
69.8304
113.836
152.665
182.079
202.857
216.559
224.977
229.822
232.512
234.07
235.109
235.916
236.566
237.04
237.29
237.287
237.028
236.532
235.834
234.974
233.993
232.925
231.802
230.647
229.481
228.294
226.941
225
8.73784
21.7357
66.615
116.522
156.662
187.14
208.701
222.973
231.826
236.901
239.587
240.916
241.542
241.813
241.87
241.741
241.412
240.87
240.122
239.192
238.115
236.93
235.676
234.384
233.079
231.779
230.496
229.206
227.749
225.752
7.11299
19.2434
63.0605
119.946
161.72
193.362
215.693
230.512
239.778
245.085
247.807
248.977
249.279
249.107
248.657
248.006
247.169
246.152
244.966
243.642
242.218
240.735
239.228
237.729
236.257
234.826
233.438
232.056
230.506
228.462
5.77263
16.9531
59.2598
121.043
168.061
200.956
224.091
239.423
249.013
254.502
257.244
258.276
258.295
257.726
256.816
255.689
254.391
252.937
251.346
249.652
247.896
246.124
244.371
242.669
241.034
239.475
237.985
236.512
234.876
232.79
4.68905
14.9022
55.3614
117.977
172.381
210.061
234.028
249.896
259.766
265.349
268.041
268.906
268.64
267.676
266.31
264.719
262.976
261.1
259.112
257.048
254.955
252.882
250.872
248.954
247.145
245.447
243.844
242.273
240.548
238.417
3.81939
13.0951
51.454
114.195
171.396
215.627
245.83
262.125
272.256
277.9
280.462
281.089
280.491
279.077
277.209
275.132
272.935
270.632
268.232
265.774
263.314
260.911
258.611
256.448
254.437
252.576
250.84
249.151
247.328
245.145
3.11903
11.4956
47.6186
110.015
169.135
215.937
250.515
273.979
286.704
292.388
294.793
295.138
294.158
292.191
289.724
287.105
284.43
281.67
278.821
275.926
273.054
270.274
267.64
265.191
262.943
260.888
258.991
257.165
255.23
252.986
2.55398
10.0694
43.8352
105.359
167.069
215.599
252.306
277.843
294.83
305.09
310.824
311.258
309.964
307.424
304.291
301.086
297.894
294.606
291.217
287.8
284.438
281.209
278.172
275.374
272.834
270.543
268.454
266.468
264.405
262.087
2.09736
8.79559
40.1118
100.146
163.813
214.911
253.713
280.91
299.208
310.91
317.94
321.691
323.01
322.33
320.596
317.225
313.605
309.798
305.846
301.883
298.012
294.303
290.812
287.596
284.697
282.12
279.802
277.625
275.415
273.001
1.72705
7.65627
36.47
95.1464
160.582
213.803
254.813
283.895
303.556
316.186
323.901
328.155
329.981
330.034
328.876
326.985
324.574
321.77
318.675
315.389
311.997
308.567
305.151
301.807
298.815
295.949
293.448
291.09
288.724
286.225
1.42598
6.63593
32.907
89.7726
156.911
212.109
255.253
286.264
307.473
321.31
329.881
334.632
336.683
336.84
335.725
333.78
331.266
328.35
325.15
321.785
318.35
314.948
311.61
308.374
305.273
302.321
299.52
296.863
294.344
291.869
1.18072
5.72508
29.4533
84.0084
152.929
209.966
255.055
287.951
310.626
325.581
334.968
340.3
342.747
343.151
342.12
340.098
337.4
334.258
330.844
327.264
323.72
320.153
316.688
313.347
310.156
307.127
304.264
301.559
299.008
296.525
0.980138
4.91627
26.1477
77.9436
147.634
207.212
254.164
289.002
313.158
329.235
339.413
345.268
348.028
348.591
347.612
345.569
342.809
339.581
336.06
332.42
328.76
325.113
321.555
318.123
314.842
311.726
308.783
306.015
303.419
300.918
0.815747
4.20343
23.0199
71.6341
141.365
204.175
252.651
289.477
315.172
332.449
343.495
349.959
353.112
353.905
353.039
351.024
348.234
344.939
341.314
337.678
333.891
330.173
326.546
323.053
319.715
316.549
313.561
310.752
308.121
305.597
0.681206
3.58166
20.11
65.2873
134.075
199.802
250.306
289.282
316.68
335.271
347.265
354.408
358.022
359.113
358.425
356.501
353.743
350.401
346.848
343.069
339.242
335.458
331.771
328.218
324.826
321.608
318.573
315.722
313.051
310.499
0.57139
3.04347
17.428
58.9134
126.87
194.611
247.287
288.468
317.727
337.756
350.784
358.689
362.83
364.28
363.822
362.033
359.344
356.029
352.492
348.648
344.786
340.954
337.214
333.609
330.164
326.897
323.816
320.921
318.21
315.625
0.482144
2.58238
14.9824
52.5595
118.988
188.572
243.497
287.001
318.304
339.891
354.056
362.809
367.55
369.419
369.241
367.627
365.022
361.802
358.211
354.382
350.486
346.612
342.824
339.167
335.671
332.353
329.222
326.28
323.524
320.9
0.409969
2.19161
12.7824
46.3227
110.388
181.534
239.03
284.855
318.369
341.64
357.079
366.771
372.195
374.542
374.688
373.286
370.781
367.662
364.069
360.24
356.313
352.394
348.554
344.841
341.288
337.914
334.727
331.732
328.924
326.255
0.351823
1.86389
10.8381
40.3536
101.274
173.676
233.881
282.064
317.905
342.999
359.846
370.582
376.771
379.658
380.172
379.012
376.648
373.636
370.053
366.219
362.265
358.302
354.408
350.637
347.022
343.586
340.34
337.286
334.424
331.706
0.305054
1.59139
9.14649
34.7545
91.8414
164.731
228.529
278.724
316.987
344.001
362.37
374.248
381.285
384.773
385.702
384.819
382.625
379.722
376.167
372.335
368.354
364.346
360.397
356.562
352.882
349.379
346.067
342.95
340.028
337.255
0.267487
1.36673
7.6958
29.6229
81.8403
154.394
221.398
274.379
315.361
344.536
364.601
377.743
385.726
389.888
391.288
390.723
388.735
385.952
382.446
378.622
374.619
370.568
366.56
362.659
358.907
355.332
351.949
348.763
345.775
342.943
0.237501
1.18348
6.47041
25.0103
72.2404
144.435
213.017
269.155
312.968
344.571
366.519
381.053
390.089
395.006
396.941
396.743
394.999
392.354
388.92
385.116
381.098
377.006
372.94
368.97
365.144
361.492
358.032
354.773
351.714
348.818
0.213767
1.03563
5.44847
20.9058
62.7109
133.228
203.477
263.022
309.814
344.123
368.118
384.193
394.377
400.139
402.678
402.898
401.441
398.956
395.619
391.851
387.826
383.698
379.575
375.535
371.63
367.896
364.353
361.01
357.872
354.9
0.195071
0.917278
4.60867
17.3409
53.5865
120.574
194.304
256.742
306.183
343.267
369.407
387.156
398.594
405.297
408.516
409.215
408.093
405.796
402.586
398.871
394.851
390.694
386.516
382.405
378.418
374.595
370.961
367.526
364.297
361.244
0.180513
0.823637
3.92905
14.3141
45.0887
106.508
182.106
247.788
300.895
341.365
370.107
389.828
402.706
410.484
414.477
415.725
414.993
412.919
409.868
406.227
402.228
398.05
393.824
389.644
385.575
381.661
377.93
374.397
371.069
367.908
0.169388
0.750708
3.38786
11.8065
37.4484
93.2336
169.172
236.783
294.097
338.32
370.119
392.143
406.682
415.701
420.583
422.462
422.179
420.36
417.505
413.963
409.996
405.805
401.532
397.284
393.13
389.121
385.289
381.652
378.224
374.959
0.161081
0.694782
2.96271
9.75925
30.6959
79.972
154.055
225.458
286.161
334.323
369.477
394.07
410.525
420.939
426.844
429.451
429.672
428.158
425.544
422.107
418.182
413.98
409.661
405.341
401.098
396.989
393.05
389.303
385.755
382.393
0.155046
0.652696
2.63384
8.12234
24.9219
67.272
137.023
212.876
277.019
329.223
368.082
395.547
414.178
426.184
433.264
436.71
437.517
436.379
434.052
430.732
426.864
422.659
418.296
413.902
409.566
405.352
401.301
397.439
393.78
390.3
0.15093
0.622066
2.38429
6.84034
20.1393
55.5492
120.511
196.814
265.806
322.33
365.493
396.295
417.471
431.336
439.805
444.237
445.742
445.08
443.08
439.912
436.125
431.933
427.533
423.066
418.634
414.308
410.138
406.153
402.369
398.768
0.148447
0.601217
2.20009
5.85631
16.2641
45.0297
103.617
180.343
253.029
313.838
361.53
396.125
420.257
436.349
446.45
452.064
454.398
454.328
452.658
449.716
446.036
441.871
437.44
432.9
428.366
423.92
419.616
415.492
411.569
407.83
0.147071
0.587508
2.06842
5.11813
13.2091
35.8991
86.6561
161.922
239.367
303.822
356.194
395.033
422.525
441.197
453.189
460.188
463.497
464.112
462.837
460.18
456.635
452.51
448.049
443.43
438.784
434.203
429.757
425.473
421.392
417.496
0.146512
0.579483
1.97804
4.57934
10.8792
28.3621
70.5238
141.917
222.137
291.83
348.957
392.81
424.183
445.823
459.997
468.632
473.099
474.536
473.751
471.463
468.104
464.048
459.572
454.878
450.115
445.389
440.771
436.324
432.067
427.997
0.146559
0.575919
1.91984
4.20126
9.15414
22.3746
55.9154
119.274
200.626
275.706
338.512
388.431
424.62
449.881
466.773
477.386
483.291
485.729
485.594
483.795
480.652
476.702
472.229
467.467
462.583
457.702
452.908
448.265
443.813
439.548
0.146632
0.574499
1.88656
3.94315
7.9174
17.8328
43.5701
97.5424
175.157
256.418
325.079
381.414
423.283
452.955
473.204
486.259
493.952
497.64
498.36
497.122
494.278
490.481
486.04
481.22
476.215
471.175
466.183
461.328
456.654
452.165
0.146354
0.574534
1.86923
3.75838
6.9491
14.0691
32.3553
74.4727
145.383
228.597
306.363
370.255
420.325
456.449
481.609
498.292
508.604
514.134
516.139
515.659
513.317
509.766
505.394
500.516
495.362
490.097
484.86
479.722
474.749
469.956
0.147216
0.578854
1.87351
3.66973
6.35209
11.5021
23.927
54.1813
113.453
195.301
280.07
351.829
411.396
455.563
486.961
508.343
522.042
530.016
533.722
534.295
532.711
529.564
525.374
520.514
515.263
509.822
504.343
498.932
493.666
488.57
0.148827
0.584444
1.88631
3.64791
6.05685
10.0615
18.7516
39.9031
85.9484
160.665
248.727
328.494
397.265
450.793
489.572
516.514
534.304
545.194
550.937
552.848
552.222
549.542
545.602
540.803
535.479
529.873
524.165
518.483
512.921
507.513
0.150289
0.589377
1.90001
3.65258
5.92074
9.2591
15.6128
30.3837
64.4114
127.885
214.041
301.634
378.489
441.858
489.003
522.492
545.211
559.611
567.848
571.463
571.874
569.838
566.227
561.534
556.157
550.386
544.438
538.467
532.586
526.84
0.151695
0.593968
1.91369
3.67153
5.87705
8.83419
13.7527
24.2311
48.6224
99.1397
178.384
271.558
355.752
428.485
485.026
526.143
554.652
573.3
584.497
590.169
591.823
590.612
587.425
582.883
577.472
571.531
565.328
559.048
552.825
546.72
0.152916
0.597765
1.92507
3.69311
5.8779
8.62998
12.6844
20.3858
37.7247
75.8664
144.278
236.67
328.983
409.987
477.006
526.951
562.294
586.003
600.756
608.896
612.096
611.931
609.252
604.916
599.482
593.374
586.897
580.282
573.688
567.191
0.153966
0.600836
1.9338
3.71241
5.89765
8.55035
12.0969
18.0481
30.5361
58.4589
113.711
197.763
293.666
384.958
462.943
523.552
567.304
597.215
616.416
627.592
632.811
633.941
631.909
627.864
622.448
616.171
609.405
602.425
595.427
588.504
0.155029
0.603809
1.94139
3.7297
5.92475
8.53786
11.8025
16.6642
25.9193
46.2025
88.9856
162.806
258.686
355.571
443.706
515.709
569.106
606.449
631.098
646.065
653.904
656.593
655.504
651.897
646.57
640.139
633.058
625.66
618.185
610.747
0.156108
0.606702
1.948
3.74445
5.95303
8.56007
11.6772
15.8883
23.0276
37.8387
69.8875
130.925
222.258
323.145
419.418
502.659
566.788
612.864
644.087
663.796
674.885
679.616
679.848
676.905
671.782
665.235
657.818
649.936
641.879
633.798
0.157235
0.609655
1.95423
3.75715
5.9783
8.5945
11.6478
15.4748
21.2709
32.3055
55.9157
103.959
184.159
288.542
391.227
484.276
560.056
616.053
655.015
680.414
695.428
702.752
704.669
702.558
697.757
691.149
683.404
675.01
666.322
657.537
0.158393
0.612499
1.95961
3.76704
5.99833
8.62883
11.6634
15.2836
20.2488
28.7637
46.2022
82.7827
150.15
247.512
359.088
460.153
548.155
615.442
663.534
695.704
715.509
726.013
729.927
728.856
724.49
717.869
709.802
700.877
691.527
681.998
0.159622
0.61545
1.96479
3.7755
6.01449
8.65974
11.6991
15.2212
19.6857
26.5706
39.6644
67.0954
121.245
209.065
321.812
430.391
530.084
610.097
668.877
709.182
734.835
749.282
755.62
755.921
752.143
745.568
737.174
727.68
717.614
707.28
0.160923
0.61851
1.96987
3.78295
6.02742
8.68542
11.7397
15.2266
19.4124
25.2608
35.3854
55.8807
97.7866
172.719
281.086
398.676
507.328
600.096
670.667
720.402
753.015
772.337
781.696
783.856
780.935
774.5
765.766
755.615
744.695
733.386
0.162243
0.621538
1.97454
3.78898
6.03652
8.70353
11.7739
15.2576
19.3018
24.5078
32.6618
48.1549
79.9303
140.839
237.259
358.398
478.807
584.104
668.297
728.97
769.79
794.956
808.093
812.667
810.872
804.723
795.661
784.756
772.801
760.284
0.163546
0.624512
1.97884
3.79377
6.04241
8.71469
11.7982
15.2931
19.2761
24.1136
30.9909
43.0131
67.0606
115.07
198.696
316.497
444.701
561.663
660.465
733.93
784.638
816.892
834.793
842.319
841.975
836.315
827.007
815.331
802.239
788.358
0.164851
0.627522
1.98306
3.79807
6.04622
8.72072
11.8135
15.3229
19.2892
23.9312
30.0091
39.6699
57.9886
94.8937
163.785
270.128
400.543
531.397
645.174
734.123
797.055
838.061
861.895
872.947
874.555
869.612
860.163
847.728
833.453
818.114
0.16623
0.630741
1.98772
3.80295
6.05111
8.72698
11.8262
15.3505
19.3239
23.8708
29.4722
37.576
51.8266
80.0336
135.147
228.765
356.461
494.909
622.632
728.704
806.24
857.979
889.062
904.506
908.629
904.735
895.281
882.117
866.624
849.744
0.167719
0.634352
1.99329
3.80927
6.0571
8.7339
11.8385
15.3759
19.3651
23.8833
29.2248
36.3371
47.7864
69.4528
112.494
191.173
311.712
454.917
594.234
716.756
810.877
875.397
915.316
936.358
943.751
941.344
932.113
918.313
901.621
883.178
0.169456
0.638426
1.99987
3.81757
6.06722
8.74608
11.8544
15.402
19.4094
23.9293
29.1462
35.6782
45.2796
62.1458
95.2553
158.614
263.595
403.3
555.475
694.907
808.575
888.643
939.634
967.894
979.532
979.16
970.428
956.131
938.338
918.421
0.171401
0.642828
2.0069
3.82649
6.07795
8.75991
11.8749
15.4352
19.4654
24.0098
29.1865
35.3835
43.7404
57.3629
82.8948
132.928
222.51
354.785
513.681
666.4
799.871
897.716
962.154
999.441
1016.66
1018.91
1010.9
996.03
976.945
955.401
0.173469
0.647251
2.01339
3.83411
6.08635
8.76975
11.8879
15.4554
19.5011
24.0696
29.2467
35.2784
42.923
54.2524
74.3006
113.113
186.573
306.148
466.979
630.016
782.308
901.16
982.204
1031.17
1055.05
1060.61
1053.62
1038.17
1017.51
993.791
0.175571
0.651444
2.01865
3.83912
6.09014
8.77224
11.8895
15.4579
19.5098
24.093
29.282
35.2428
42.4617
52.3344
68.4049
98.4977
156.702
259.239
412.114
585.685
754.694
896.676
997.999
1061.67
1094.78
1105.16
1099.67
1083.32
1060.17
1032.9
0.17764
0.65535
2.02266
3.84159
6.0895
8.76771
11.8803
15.4438
19.4924
24.0785
29.2745
35.2063
42.1929
51.1519
64.5378
88.1228
133.449
217.688
353.048
529.971
715.935
881.786
1007.56
1089.72
1134.87
1151.66
1148.49
1131.46
1105.63
1074.47
0.179672
0.658896
2.02543
3.84171
6.08529
8.75813
11.8641
15.4196
19.4601
24.0409
29.2369
35.1576
42.0273
50.4531
62.0981
81.0543
116.42
184.199
302.477
477.478
676.338
860.273
1012.05
1115.02
1174.38
1199.72
1199.9
1182.58
1153.93
1118.46
0.181686
0.662906
2.02956
3.84493
6.08535
8.75451
11.8553
15.4038
19.4368
24.0111
29.2057
35.1256
41.943
50.0646
60.5999
76.4389