/*--------------------------------*- C++ -*----------------------------------*\
| =========                 |                                                 |
| \\      /  F ield         | OpenFOAM: The Open Source CFD Toolbox           |
|  \\    /   O peration     | Version:  2312                                  |
|   \\  /    A nd           | Website:  www.openfoam.com                      |
|    \\/     M anipulation  |                                                 |
\*---------------------------------------------------------------------------*/
FoamFile
{
    version     2.0;
    format      ascii;
    arch        "LSB;label=32;scalar=64";
    class       volScalarField;
    location    "constant";
    object      Pkf;
}
// * * * * * * * * * * * * * * * * * * * * * * * * * * * * * * * * * * * * * //

dimensions      [0 0 0 0 0 0 0];

internalField   nonuniform List<scalar> 
29400
(
0.28929
0.237253
0.299518
0.309968
0.205716
0.262548
0.207588
0.241382
0.210921
0.26128
0.230487
0.247704
0.217024
0.242419
0.210235
0.25209
0.197733
0.216061
0.191618
0.207742
0.182501
0.115302
0.0843871
0.115973
0.0857683
0.112434
0.0823583
0.112788
0.0828159
0.214342
0.385735
0.25006
0.198922
0.204221
0.115649
0.0833551
0.07647
0.0788563
0.065651
0.0668656
0.058848
0.0849024
0.0923632
0.101074
0.0845634
0.11489
0.0840341
0.113572
0.0832013
0.122898
0.084956
0.128715
0.0871864
0.141386
0.0894278
0.153161
0.0960738
0.157903
0.0914115
0.151206
0.406249
0.238863
0.203564
0.159834
0.156414
0.145205
0.172439
0.15804
0.166671
0.166877
0.151087
0.159457
0.134375
0.170926
0.151781
0.15841
0.161413
0.192386
0.16767
0.194467
0.200857
0.250574
0.216744
0.226011
0.204527
0.234827
0.21271
0.240094
0.212541
0.212728
0.166248
0.147512
0.127298
0.112472
0.109661
0.102128
0.106067
0.130281
0.151047
0.151683
0.157509
0.156577
0.170093
0.174641
0.169455
0.195568
0.17728
0.200875
0.19291
0.203382
0.20703
0.216981
0.213045
0.224679
0.230759
0.232103
0.243597
0.233814
0.249357
0.225471
0.202508
0.0929382
0.0814483
0.0668447
0.0581852
0.0469344
0.0453412
0.0556919
0.0527824
0.0471407
0.0535134
0.0540174
0.0708217
0.100746
0.0992966
0.0928461
0.096852
0.0847105
0.0737599
0.0739684
0.068688
0.0734681
0.0781463
0.0886695
0.0876289
0.0983918
0.0987267
0.0966704
0.100873
0.113525
0.193005
0.0785496
0.0841883
0.047578
0.0613108
0.0488385
0.0426036
0.0343073
0.0342233
0.031061
0.0370681
0.0343337
0.0387712
0.036663
0.0442904
0.0425674
0.0653321
0.0724922
0.0793417
0.0857178
0.0751828
0.0840658
0.0680961
0.0978657
0.0909076
0.100059
0.0871444
0.0993194
0.0900828
0.0970331
0.193467
0.149525
0.10434
0.0743225
0.092932
0.0667458
0.0931173
0.061462
0.0856836
0.0583939
0.0920382
0.0580024
0.09423
0.0593569
0.084506
0.0687939
0.0777246
0.0727559
0.074932
0.0714204
0.0772326
0.0718953
0.073885
0.0715214
0.086181
0.0856981
0.0895754
0.0756372
0.0759583
0.0691665
0.125393
0.179199
0.117725
0.10889
0.107888
0.106263
0.114387
0.103615
0.105179
0.105986
0.10684
0.106145
0.105477
0.0972444
0.103384
0.0891059
0.0966868
0.0915105
0.0954296
0.101121
0.098429
0.0954309
0.091985
0.0877084
0.0897281
0.0890959
0.0919601
0.0865491
0.0916895
0.0898918
0.123872
0.142272
0.150824
0.116411
0.126996
0.12071
0.123607
0.133646
0.143825
0.139169
0.150019
0.138684
0.131444
0.120527
0.129022
0.121618
0.118795
0.112218
0.118596
0.104712
0.111614
0.126909
0.125053
0.109113
0.109165
0.11201
0.113641
0.113753
0.118485
0.11779
0.111356
0.179304
0.192219
0.137972
0.155415
0.138277
0.162272
0.153755
0.167615
0.158816
0.172869
0.151291
0.16377
0.153367
0.156503
0.150782
0.142862
0.134307
0.13272
0.126534
0.126356
0.121135
0.132035
0.130726
0.143533
0.126543
0.136666
0.132959
0.138967
0.129821
0.118011
0.184484
0.1735
0.194518
0.171131
0.157232
0.174915
0.193334
0.19704
0.188122
0.193683
0.187832
0.181243
0.179977
0.175515
0.160855
0.160119
0.154192
0.162019
0.156055
0.153435
0.14828
0.139756
0.145342
0.143107
0.141021
0.144967
0.140828
0.147037
0.141109
0.118442
0.170147
0.185816
0.215814
0.239598
0.215508
0.20597
0.20385
0.20782
0.209116
0.21608
0.214263
0.202279
0.213264
0.194407
0.192935
0.19349
0.184418
0.181927
0.176467
0.169646
0.168765
0.163891
0.164103
0.162649
0.158485
0.156421
0.151281
0.151585
0.150843
0.10877
0.173152
0.202692
0.234188
0.239375
0.245775
0.250973
0.235357
0.230653
0.216491
0.237088
0.213877
0.214369
0.210678
0.210117
0.21006
0.20261
0.203669
0.200586
0.212249
0.195028
0.209043
0.188633
0.192355
0.181953
0.181607
0.178376
0.175784
0.169687
0.168986
0.113909
0.179188
0.216196
0.233311
0.258994
0.262828
0.280204
0.287314
0.262232
0.243158
0.250613
0.2379
0.238524
0.234387
0.229884
0.226149
0.232615
0.223127
0.218547
0.214253
0.218516
0.217891
0.210166
0.210424
0.200978
0.214374
0.191721
0.199548
0.184571
0.193553
0.111613
0.192966
0.248517
0.247006
0.268103
0.264812
0.286478
0.286183
0.293628
0.290117
0.286505
0.264299
0.269293
0.256296
0.250457
0.242678
0.241933
0.236775
0.244714
0.233663
0.232806
0.233126
0.231412
0.224593
0.220607
0.224856
0.214823
0.212991
0.205606
0.208658
0.116529
0.19542
0.236569
0.241924
0.268099
0.272271
0.289926
0.298353
0.29567
0.30235
0.303461
0.29923
0.305534
0.291666
0.288321
0.269061
0.266461
0.261537
0.267167
0.25357
0.258831
0.245518
0.247874
0.241752
0.242418
0.232143
0.233875
0.23045
0.226411
0.222783
0.119476
0.202757
0.246693
0.246689
0.265878
0.264759
0.285072
0.300056
0.296235
0.309395
0.305884
0.299887
0.312692
0.307575
0.317632
0.292057
0.29363
0.282399
0.287243
0.277572
0.279215
0.266069
0.262473
0.252379
0.256329
0.246703
0.251274
0.243873
0.248585
0.240226
0.118856
0.200618
0.237359
0.250427
0.276647
0.269386
0.291256
0.300544
0.30497
0.311118
0.29881
0.305997
0.305159
0.300999
0.309818
0.307747
0.313164
0.299661
0.299615
0.299887
0.285191
0.284857
0.283918
0.277854
0.278664
0.274608
0.281942
0.267636
0.268906
0.27013
0.119635
0.191609
0.233172
0.256151
0.267237
0.279128
0.293289
0.303623
0.304971
0.30949
0.311103
0.303202
0.29514
0.296606
0.298713
0.297365
0.310418
0.298126
0.302812
0.299764
0.296441
0.296689
0.303367
0.295331
0.300223
0.29851
0.303544
0.299607
0.300558
0.302267
0.120206
0.182529
0.22371
0.25984
0.26517
0.27816
0.293678
0.301053
0.305522
0.30717
0.312256
0.311391
0.294768
0.296702
0.292242
0.296408
0.299623
0.300035
0.301633
0.294723
0.297422
0.295337
0.290158
0.292376
0.301181
0.293704
0.301725
0.291498
0.304058
0.298551
0.12556
0.184901
0.228167
0.273301
0.266006
0.281531
0.298295
0.306148
0.310274
0.322973
0.314608
0.312974
0.302765
0.29388
0.294625
0.296731
0.296682
0.297402
0.298745
0.295589
0.296541
0.295693
0.298301
0.293545
0.290278
0.290199
0.295514
0.293122
0.306179
0.296956
0.133159
0.172069
0.208025
0.262422
0.266839
0.291118
0.300438
0.318665
0.32813
0.326026
0.325137
0.318318
0.309315
0.299619
0.299225
0.292747
0.294043
0.290878
0.299539
0.298314
0.295332
0.295633
0.295996
0.303607
0.298565
0.302938
0.295893
0.305558
0.29328
0.300695
0.139871
0.16551
0.199614
0.247788
0.261628
0.290529
0.299584
0.324402
0.330664
0.32904
0.327713
0.321773
0.31424
0.307772
0.305598
0.30134
0.297608
0.295847
0.293841
0.298768
0.298309
0.300036
0.303879
0.299249
0.300822
0.306901
0.306496
0.306969
0.303914
0.302211
0.140621
0.16413
0.198706
0.241939
0.25098
0.286807
0.295159
0.322408
0.33463
0.334983
0.337599
0.328279
0.328615
0.321731
0.314202
0.310458
0.304266
0.301034
0.300798
0.300966
0.304907
0.307344
0.302305
0.308703
0.30266
0.309674
0.307549
0.315209
0.311569
0.310881
0.135039
0.171014
0.189996
0.24346
0.249407
0.283246
0.294194
0.315227
0.33786
0.341748
0.339338
0.339025
0.342971
0.326244
0.32023
0.318181
0.30583
0.31555
0.308945
0.309667
0.309913
0.314417
0.310487
0.316667
0.305749
0.309491
0.305591
0.308798
0.306316
0.313254
0.134852
0.176096
0.19583
0.240057
0.245648
0.282794
0.293849
0.324045
0.337232
0.345495
0.347347
0.350404
0.353425
0.336969
0.328846
0.32825
0.31701
0.318235
0.314007
0.319136
0.324717
0.32835
0.336185
0.319026
0.321305
0.318291
0.318301
0.317383
0.320753
0.312393
0.133831
0.178326
0.198946
0.237406
0.246727
0.278936
0.285302
0.321537
0.327193
0.342723
0.353793
0.357901
0.355857
0.347693
0.342991
0.33819
0.343564
0.342748
0.349463
0.3409
0.347164
0.334372
0.33206
0.325097
0.321196
0.326717
0.324117
0.334351
0.321611
0.331177
0.144539
0.187786
0.203784
0.233298
0.241647
0.270669
0.28735
0.322487
0.328712
0.343384
0.355903
0.356531
0.360792
0.354583
0.356735
0.358806
0.372768
0.349493
0.34137
0.329501
0.318557
0.32594
0.317634
0.326452
0.32659
0.331484
0.323702
0.337518
0.323429
0.337146
0.146644
0.182044
0.205682
0.236827
0.23531
0.279067
0.288267
0.315531
0.330605
0.341121
0.363715
0.356506
0.362712
0.388738
0.38739
0.377061
0.354685
0.347174
0.334642
0.340222
0.325168
0.339015
0.325902
0.336699
0.321518
0.335924
0.322343
0.334955
0.327006
0.339771
0.155895
0.179318
0.247847
0.23911
0.237199
0.280403
0.295334
0.312483
0.338504
0.34858
0.367497
0.360746
0.375153
0.376686
0.372213
0.364047
0.358298
0.35676
0.348013
0.360413
0.33206
0.347664
0.330717
0.344747
0.327851
0.345657
0.325981
0.344845
0.327151
0.344887
0.156035
0.18846
0.218276
0.237086
0.244882
0.286625
0.302495
0.32386
0.34568
0.357325
0.365654
0.362709
0.401806
0.372384
0.383268
0.379244
0.366172
0.365835
0.358968
0.357332
0.342804
0.355528
0.337115
0.348586
0.334164
0.352008
0.331138
0.341795
0.330732
0.342344
0.171373
0.19106
0.216987
0.245763
0.257354
0.303888
0.307748
0.34368
0.351462
0.370889
0.372914
0.376275
0.390871
0.39216
0.393245
0.386283
0.378655
0.375445
0.362532
0.362275
0.350932
0.361322
0.346095
0.354268
0.347406
0.35747
0.343394
0.356895
0.344814
0.352287
0.173434
0.202769
0.218076
0.257268
0.261675
0.300463
0.323402
0.348807
0.361256
0.388215
0.384628
0.430952
0.391171
0.398255
0.397607
0.385615
0.398506
0.387476
0.37097
0.368777
0.362667
0.365567
0.354573
0.360972
0.34879
0.36838
0.352324
0.363601
0.348591
0.359918
0.175498
0.214212
0.213921
0.267389
0.26702
0.317418
0.326978
0.362389
0.371711
0.404168
0.393852
0.425438
0.400409
0.408274
0.405068
0.400335
0.402693
0.393337
0.38281
0.379001
0.371951
0.375528
0.357523
0.363916
0.35477
0.370513
0.356017
0.372588
0.357959
0.367089
0.178156
0.216037
0.223182
0.275031
0.284651
0.333423
0.339763
0.376163
0.378567
0.411437
0.406996
0.41418
0.413918
0.417725
0.409574
0.408263
0.414346
0.401545
0.394538
0.3919
0.388372
0.37792
0.37003
0.372955
0.364943
0.371758
0.361528
0.372536
0.366019
0.377705
0.190206
0.22054
0.234521
0.288177
0.307706
0.351006
0.353709
0.388613
0.387671
0.41388
0.420572
0.43142
0.416655
0.43094
0.420234
0.428033
0.411708
0.410046
0.409331
0.4046
0.385822
0.385654
0.382615
0.385176
0.378789
0.382879
0.373103
0.3813
0.369673
0.381457
0.197278
0.231176
0.22835
0.294871
0.332435
0.372675
0.37912
0.40352
0.415666
0.426298
0.440251
0.448032
0.438026
0.457157
0.434491
0.441094
0.420027
0.420261
0.417215
0.406199
0.396124
0.40218
0.393194
0.392015
0.386139
0.392171
0.383666
0.38562
0.381333
0.396112
0.208938
0.234529
0.233608
0.314983
0.365751
0.393978
0.429501
0.438371
0.434134
0.43423
0.446349
0.461485
0.456772
0.474348
0.446671
0.44751
0.431152
0.434313
0.421466
0.417442
0.402584
0.4076
0.39719
0.405175
0.397107
0.4012
0.390773
0.396839
0.389295
0.401616
0.203301
0.236339
0.244273
0.338035
0.389126
0.411325
0.446325
0.460672
0.463047
0.447619
0.456178
0.469212
0.46599
0.480888
0.461732
0.467756
0.440738
0.446099
0.426286
0.43057
0.417472
0.422393
0.405234
0.4148
0.414381
0.422732
0.418051
0.420174
0.419364
0.428837
0.202744
0.24758
0.257424
0.350526
0.418599
0.435539
0.463838
0.481392
0.49595
0.489879
0.485759
0.483857
0.486594
0.501531
0.491455
0.493431
0.467875
0.472321
0.441704
0.446106
0.434924
0.441417
0.442854
0.449741
0.448535
0.445031
0.44026
0.440169
0.439062
0.443939
0.203814
0.266895
0.288345
0.368563
0.448196
0.458158
0.509814
0.540883
0.547245
0.550334
0.539529
0.528626
0.534019
0.536264
0.51905
0.528968
0.518912
0.512511
0.486787
0.485995
0.468587
0.465107
0.470122
0.46065
0.466525
0.463442
0.454028
0.451098
0.453358
0.455974
0.208441
0.286156
0.307958
0.388185
0.456922
0.502629
0.556759
0.575772
0.584192
0.578562
0.569271
0.556823
0.556916
0.540699
0.531655
0.545083
0.533786
0.519258
0.515335
0.511812
0.490006
0.491979
0.484563
0.481375
0.481379
0.481284
0.470279
0.46617
0.466316
0.478331
0.21466
0.28955
0.3204
0.398313
0.495018
0.562664
0.589287
0.594267
0.609126
0.601962
0.595802
0.576301
0.578772
0.564062
0.545016
0.54892
0.545484
0.538905
0.533829
0.526812
0.518427
0.517861
0.51747
0.502932
0.501364
0.508805
0.491035
0.491369
0.486061
0.494968
0.228482
0.281791
0.334486
0.429841
0.541616
0.588754
0.615224
0.622215
0.647223
0.634667
0.645402
0.646808
0.6021
0.596881
0.566345
0.570025
0.561906
0.549114
0.542946
0.542143
0.536585
0.531
0.527473
0.526305
0.526472
0.51831
0.520722
0.519611
0.512638
0.509707
0.243844
0.288951
0.347164
0.450989
0.559359
0.615224
0.650827
0.655681
0.675638
0.660654
0.672921
0.672169
0.627815
0.62567
0.606717
0.595697
0.573981
0.574612
0.56415
0.562076
0.555978
0.556146
0.554003
0.548596
0.54593
0.537342
0.538237
0.536298
0.54004
0.540886
0.265985
0.296879
0.354438
0.519238
0.567205
0.634413
0.669646
0.679417
0.694318
0.683047
0.703806
0.686557
0.666049
0.665288
0.63179
0.622739
0.61472
0.609675
0.598062
0.588486
0.581117
0.584822
0.574812
0.585771
0.580916
0.580539
0.574986
0.565497
0.561715
0.563855
0.269311
0.316313
0.369186
0.536042
0.573252
0.642307
0.701472
0.71015
0.72516
0.700425
0.746258
0.716061
0.70417
0.694396
0.66954
0.654779
0.636379
0.643073
0.629717
0.627366
0.614351
0.61303
0.605498
0.607379
0.603175
0.603978
0.600377
0.590612
0.598119
0.598232
0.267901
0.324165
0.385746
0.548867
0.586926
0.659909
0.722058
0.744761
0.76173
0.750744
0.775965
0.751194
0.76596
0.724964
0.712666
0.704468
0.676697
0.676012
0.657308
0.666634
0.649227
0.654567
0.63428
0.639517
0.637239
0.629779
0.630761
0.622221
0.625123
0.626882
0.275988
0.343974
0.412493
0.5706
0.600972
0.673467
0.736328
0.774639
0.794291
0.77583
0.800341
0.800715
0.815101
0.753336
0.763093
0.732131
0.722867
0.718336
0.700799
0.696672
0.688675
0.685611
0.675051
0.681404
0.675993
0.662322
0.658142
0.656983
0.651424
0.655264
0.308893
0.365697
0.614772
0.580721
0.629337
0.716309
0.750555
0.789547
0.827736
0.806728
0.830169
0.82195
0.832785
0.826846
0.803376
0.789065
0.762111
0.750058
0.736118
0.728414
0.72334
0.720576
0.711758
0.713592
0.705555
0.697807
0.690616
0.698103
0.690594
0.704347
0.337789
0.391448
0.707513
0.601089
0.649041
0.751781
0.799316
0.839858
0.868289
0.857779
0.871867
0.862986
0.857756
0.864329
0.838805
0.818053
0.813639
0.791757
0.775821
0.772163
0.769937
0.76881
0.75482
0.747635
0.730447
0.738879
0.7233
0.741069
0.726894
0.738573
0.350098
0.422772
0.470441
0.646315
0.692072
0.767802
0.817191
0.882806
0.925766
0.905907
0.923291
0.902355
0.898583
0.883246
0.890636
0.860126
0.865496
0.831156
0.832882
0.820889
0.809406
0.803155
0.795178
0.80022
0.788128
0.779201
0.775973
0.785775
0.778634
0.786137
0.36975
0.455588
0.490234
0.649968
0.701112
0.812282
0.84204
0.928603
0.94642
0.960646
0.956033
0.953136
0.951637
0.930945
0.926606
0.90976
0.907862
0.876716
0.877596
0.8651
0.860931
0.861404
0.856236
0.852476
0.844004
0.848912
0.850817
0.848988
0.841687
0.852222
0.378654
0.486791
0.488704
0.655268
0.712366
0.816318
0.871063
0.962788
0.993586
1.00232
1.01624
1.02114
1.00848
0.974376
0.993586
0.9868
0.958635
0.928964
0.935416
0.909286
0.918025
0.910772
0.909636
0.899953
0.893577
0.908585
0.906902
0.907085
0.900568
0.915323
0.427157
0.537995
0.506328
0.689977
0.725559
0.865548
0.871241
0.991627
1.0263
1.02747
1.0618
1.06478
1.05516
1.03783
1.03187
1.00445
1.00307
0.981175
0.983293
0.967793
0.975676
0.961733
0.963986
0.954023
0.96357
0.974185
0.96847
0.970436
0.964121
0.972133
0.432076
0.562373
0.509647
0.917779
0.72832
0.866736
0.887758
1.02442
1.06588
1.0899
1.08985
1.102
1.09609
1.08862
1.0874
1.05658
1.04736
1.04405
1.03331
1.02505
1.00634
1.00366
1.01119
0.985544
1.00142
1.00362
1.01136
1.01605
1.01088
1.02432
0.423464
0.558227
0.496181
0.738693
0.71848
0.857284
0.890303
1.02963
1.06616
1.11937
1.12306
1.15707
1.13989
1.14461
1.13247
1.12943
1.12428
1.10142
1.07994
1.08291
1.05937
1.06685
1.0538
1.0427
1.0529
1.04366
1.06348
1.05861
1.04371
1.04806
0.447808
0.552345
0.487311
0.656898
0.71299
0.870544
0.913703
1.02272
1.1013
1.12451
1.13639
1.16733
1.19085
1.17471
1.17391
1.17753
1.1704
1.17552
1.12342
1.14641
1.10874
1.12279
1.11035
1.10854
1.11174
1.10787
1.11325
1.10317
1.09782
1.1125
0.448627
0.580531
0.501225
0.62596
0.939411
0.862488
0.921066
1.01688
1.10335
1.13949
1.15639
1.18349
1.19501
1.20346
1.22373
1.2123
1.20507
1.2052
1.18118
1.18145
1.17008
1.17201
1.14876
1.15876
1.16402
1.16268
1.14559
1.15665
1.15466
1.16553
0.479264
0.574596
0.486331
0.626156
0.836251
0.856393
0.90762
1.00762
1.09059
1.15487
1.17464
1.19107
1.21603
1.23344
1.26155
1.25538
1.24722
1.24898
1.22756
1.21877
1.19502
1.21293
1.1977
1.19525
1.19543
1.21719
1.19921
1.20436
1.19556
1.20973
0.499117
0.577503
0.465358
0.613707
0.725266
0.86513
0.922657
1.02248
1.09413
1.15494
1.18014
1.20289
1.22604
1.24811
1.25005
1.26595
1.2762
1.27214
1.2771
1.26565
1.25726
1.23986
1.23753
1.244
1.2404
1.26703
1.24595
1.25152
1.23856
1.24402
0.526728
0.531386
0.451108
0.598598
0.711421
1.01742
1.00105
1.09931
1.17918
1.17346
1.18297
1.21839
1.22434
1.2634
1.25677
1.28474
1.27867
1.28367
1.28194
1.27632
1.27767
1.27138
1.24768
1.26959
1.25069
1.25235
1.2496
1.2548
1.24588
1.25712
0.496946
0.523578
0.438787
0.601368
0.694109
0.945861
0.987102
1.09487
1.17352
1.20425
1.22468
1.20241
1.22783
1.24663
1.25831
1.25987
1.28159
1.30355
1.2971
1.28954
1.2965
1.2879
1.27748
1.29181
1.30064
1.29877
1.30452
1.29006
1.28497
1.29084
0.494502
0.533173
0.426488
0.591114
0.655677
0.843143
1.03716
1.07152
1.17314
1.19517
1.23244
1.23674
1.27083
1.23808
1.26357
1.25076
1.26592
1.29544
1.28026
1.30305
1.29857
1.29296
1.30215
1.3003
1.32745
1.30186
1.32863
1.31122
1.32318
1.30953
0.51398
0.524701
0.446374
0.598253
0.647803
0.807799
1.08569
1.0524
1.15988
1.17572
1.22064
1.22971
1.2595
1.2602
1.2793
1.23712
1.27777
1.25661
1.2917
1.30073
1.28874
1.28607
1.28857
1.31397
1.29431
1.31583
1.28915
1.315
1.29203
1.31523
0.509791
0.497263
0.449051
0.585999
0.633924
0.773377
0.930853
1.02234
1.09952
1.13798
1.1935
1.20342
1.22314
1.24361
1.25949
1.27861
1.27998
1.29431
1.28365
1.26035
1.25802
1.25255
1.28573
1.28975
1.27455
1.30017
1.28819
1.29625
1.28639
1.29047
0.51463
0.513266
0.453855
0.525244
0.61366
0.757945
0.890904
1.07961
1.05922
1.09028
1.1661
1.19323
1.1985
1.22798
1.21888
1.24014
1.2386
1.26231
1.26148
1.29355
1.25335
1.2964
1.27986
1.30982
1.27722
1.29788
1.27622
1.2919
1.2733
1.27863
0.488724
0.523796
0.485287
0.492222
0.609867
0.740259
0.871889
0.981063
1.08874
1.08075
1.11818
1.14884
1.16721
1.19245
1.19721
1.2207
1.2111
1.23793
1.23176
1.26036
1.21617
1.2697
1.2504
1.2697
1.24675
1.24479
1.23641
1.25092
1.23966
1.25645
0.523215
0.511459
0.483845
0.46993
0.593299
0.736531
0.858975
0.920564
1.09175
1.06713
1.09727
1.12766
1.13558
1.14448
1.15702
1.18501
1.19969
1.21239
1.20515
1.2236
1.18599
1.24289
1.20723
1.22662
1.21002
1.22538
1.20173
1.23441
1.19691
1.23621
0.521694
0.520491
0.495203
0.485549
0.580625
0.697744
0.840213
0.910797
0.984846
1.1139
1.06131
1.09145
1.10973
1.12654
1.14609
1.15978
1.171
1.18535
1.18641
1.19055
1.16836
1.2056
1.18784
1.19906
1.1888
1.19474
1.17743
1.20554
1.17664
1.19336
0.52776
0.495702
0.498602
0.470324
0.562938
0.68126
0.794949
0.870591
0.958546
1.02533
1.09515
1.05046
1.0713
1.09166
1.10905
1.12567
1.14243
1.14526
1.16175
1.17225
1.13453
1.16668
1.15006
1.15178
1.14205
1.15702
1.13625
1.16313
1.13393
1.14584
0.534301
0.524857
0.473028
0.48671
0.559779
0.677483
0.78295
0.869804
0.932578
0.965073
1.04127
1.10551
1.07476
1.05432
1.07617
1.09629
1.09095
1.11759
1.10833
1.13733
1.10212
1.15098
1.12843
1.13137
1.11384
1.12277
1.11756
1.12456
1.10877
1.10761
0.551795
0.571336
0.499541
0.49006
0.562759
0.660851
0.789993
0.863815
0.927442
0.96774
1.00109
1.03066
1.07923
1.08599
1.08292
1.07376
1.08159
1.09571
1.10389
1.11284
1.08436
1.11006
1.09831
1.09913
1.08666
1.09622
1.08039
1.10517
1.06716
1.0879
0.530894
0.625085
0.524854
0.500114
0.589581
0.650084
0.777417
0.857007
0.911658
0.951519
0.976578
0.996714
1.01569
1.03086
1.05474
1.06758
1.07667
1.07895
1.09031
1.09201
1.06697
1.09784
1.08826
1.0968
1.08195
1.09136
1.07347
1.09707
1.07195
1.08785
0.55849
0.633459
0.516408
0.495794
0.591016
0.654163
0.775493
0.840907
0.896417
0.933509
0.965473
0.99114
0.991334
1.01321
1.02125
1.05351
1.05627
1.0582
1.07243
1.07795
1.05891
1.09437
1.08083
1.0809
1.07698
1.08153
1.06864
1.0788
1.0609
1.07122
0.539305
0.671032
0.529812
0.486161
0.565344
0.648128
0.755677
0.812505
0.889139
0.92733
0.967051
0.982696
0.995962
1.00836
1.01167
1.03043
1.0368
1.05416
1.05198
1.04794
1.05494
1.07669
1.06917
1.06099
1.0646
1.05483
1.06077
1.04922
1.04689
1.05612
0.529452
0.664201
0.527003
0.508574
0.570814
0.643673
0.73657
0.807613
0.881049
0.920142
0.946458
0.970666
0.991707
0.994861
1.00142
1.01956
1.02974
1.03689
1.05329
1.04604
1.05473
1.04891
1.04736
1.05497
1.06654
1.05264
1.05208
1.04687
1.03667
1.03723
0.498271
0.679547
0.54916
0.481121
0.558907
0.637728
0.733682
0.796252
0.850523
0.903008
0.922352
0.963785
0.967781
0.987916
0.985255
1.01462
1.02821
1.03913
1.04132
1.04238
1.05333
1.04148
1.06167
1.0442
1.03874
1.05464
1.04073
1.04491
1.03625
1.02865
0.489779
0.69231
0.52628
0.510709
0.542287
0.618085
0.70631
0.783516
0.846676
0.889974
0.910213
0.945878
0.945684
0.98878
0.983033
1.01203
1.02339
1.04096
1.03653
1.05939
1.04361
1.05664
1.04616
1.06215
1.04039
1.03694
1.03194
1.01596
1.02541
1.00481
0.510139
0.679514
0.549789
0.538744
0.53776
0.606652
0.715773
0.770563
0.829392
0.88388
0.907572
0.954039
0.943208
0.981291
0.982331
1.01434
1.00791
1.03355
1.02865
1.04692
1.02656
1.04191
1.03533
1.04189
1.02994
1.02095
1.01986
1.004
1.00396
0.986173
0.538428
0.648842
0.557712
0.545831
0.515703
0.598794
0.705055
0.754345
0.812307
0.869403
0.886383
0.93733
0.941564
0.982601
0.958982
0.998571
0.967181
0.973373
0.984088
0.984503
0.994147
0.993663
0.994215
0.995231
1.02105
1.01133
1.00612
0.99636
0.993971
0.976799
0.558654
0.682728
0.571921
0.566496
0.479939
0.570139
0.690137
0.732457
0.802791
0.856539
0.877438
0.93314
0.929045
0.920888
0.942263
0.946316
0.962442
0.970096
0.975573
0.972451
0.980353
0.985591
1.00068
0.981903
0.985464
0.979136
0.989014
0.976178
0.983294
0.983706
0.592308
0.693569
0.571627
0.611967
0.473272
0.548945
0.666256
0.728124
0.791902
0.848872
0.875508
0.896593
0.907649
0.919479
0.940677
0.941051
0.957793
0.964465
0.964442
0.966462
0.974194
0.988298
0.995312
0.975142
0.977808
0.966605
0.987645
0.964778
0.974036
0.967037
0.641095
0.699342
0.578207
0.588824
0.471404
0.553912
0.654733
0.711523
0.774818
0.845697
0.84433
0.88445
0.905876
0.914467
0.928663
0.936512
0.949189
0.957801
0.958714
0.966128
0.96807
0.983391
0.977805
0.970301
0.981888
0.961066
0.977777
0.957301
0.968403
0.959869
0.736136
0.719099
0.596117
0.594532
0.465526
0.529995
0.629523
0.708334
0.759851
0.79844
0.834463
0.87158
0.893847
0.918989
0.923327
0.939704
0.946106
0.956392
0.953316
0.961547
0.964793
0.971088
0.973508
0.969023
0.972561
0.965666
0.967308
0.954535
0.953868
0.961091
0.765888
0.699134
0.605026
0.612003
0.45279
0.518151
0.612373
0.691679
0.709557
0.795478
0.818628
0.857401
0.888008
0.91381
0.92049
0.934491
0.938772
0.947656
0.951528
0.958573
0.96359
0.967625
0.974718
0.966786
0.9691
0.964976
0.96518
0.960914
0.952029
0.956793
0.746354
0.678645
0.571885
0.642023
0.448269
0.501611
0.594531
0.658019
0.691709
0.759476
0.804113
0.846117
0.873808
0.903948
0.911537
0.929539
0.936018
0.945331
0.950101
0.952378
0.959246
0.961754
0.969971
0.966985
0.965668
0.966971
0.964759
0.96205
0.956555
0.96069
0.750144
0.724078
0.530136
0.638331
0.43363
0.494721
0.565447
0.629336
0.683421
0.742881
0.803865
0.832069
0.870568
0.895327
0.907757
0.927377
0.931781
0.9404
0.947872
0.949891
0.956007
0.95746
0.964573
0.96646
0.965929
0.969474
0.965635
0.964913
0.957688
0.961329
0.745795
0.750916
0.544114
0.638441
0.428543
0.47288
0.536711
0.591922
0.689948
0.723836
0.785193
0.816885
0.859719
0.891239
0.904757
0.923729
0.930265
0.941051
0.947895
0.951468
0.955978
0.958878
0.964965
0.963782
0.965159
0.966372
0.963352
0.965061
0.960382
0.961784
0.788203
0.779754
0.562821
0.634193
0.465447
0.451494
0.50168
0.580174
0.658351
0.704006
0.774298
0.80294
0.850643
0.885286
0.901433
0.92192
0.928985
0.940296
0.946697
0.951271
0.95455
0.956011
0.961837
0.959386
0.965159
0.96301
0.962366
0.962056
0.960263
0.959685
0.822522
0.794287
0.619639
0.64853
0.480903
0.466998
0.476484
0.570584
0.636277
0.694028
0.771463
0.801603
0.85213
0.881472
0.900553
0.918625
0.930251
0.941374
0.945874
0.949362
0.95257
0.955033
0.960052
0.957742
0.964538
0.961848
0.961659
0.960464
0.959868
0.958829
0.86527
0.795718
0.653355
0.6337
0.493017
0.467902
0.444927
0.548554
0.627694
0.683975
0.762385
0.791808
0.852466
0.878272
0.894334
0.916662
0.924693
0.937928
0.943921
0.946967
0.950756
0.953804
0.955419
0.959876
0.968522
0.959391
0.959403
0.957702
0.958694
0.957471
0.881161
0.857575
0.711052
0.586684
0.52749
0.450516
0.427119
0.519576
0.595023
0.656691
0.751412
0.783042
0.843687
0.875634
0.89116
0.914473
0.924602
0.934977
0.941544
0.944488
0.949243
0.952268
0.953591
0.967121
0.959149
0.958174
0.958615
0.957972
0.958008
0.956748
0.911011
0.875527
0.78113
0.622101
0.532494
0.479322
0.410002
0.478259
0.580475
0.639843
0.736157
0.771749
0.831543
0.868442
0.886883
0.911803
0.9202
0.931845
0.938164
0.942581
0.948557
0.950783
0.952584
0.959693
0.958901
0.957555
0.957389
0.957114
0.956921
0.956465
0.900465
0.892544
0.842498
0.671953
0.558784
0.512358
0.410484
0.469963
0.582924
0.616086
0.709312
0.751729
0.823552
0.860021
0.885577
0.909837
0.918659
0.929842
0.935708
0.941116
0.946887
0.94925
0.951562
0.954765
0.957713
0.956519
0.956609
0.955911
0.95563
0.955762
0.938317
0.912262
0.884008
0.713595
0.605351
0.51436
0.418554
0.46348
0.55764
0.604742
0.696456
0.739543
0.813037
0.851917
0.879326
0.900952
0.914956
0.928191
0.932777
0.93915
0.943408
0.947787
0.948311
0.953352
0.957333
0.956434
0.955111
0.95506
0.956389
0.95609
0.932822
0.92945
0.915524
0.79232
0.62013
0.58628
0.45812
0.459301
0.534459
0.610214
0.679534
0.732565
0.802744
0.846298
0.875144
0.897403
0.913015
0.924676
0.930944
0.93664
0.942383
0.946328
0.947401
0.950503
0.969276
0.956176
0.954756
0.953713
0.95472
0.954866
0.954598
0.90803
0.918145
0.836456
0.675089
0.606437
0.479892
0.47132
0.5257
0.591519
0.663008
0.71495
0.777587
0.804979
0.853698
0.882413
0.897319
0.925129
0.925487
0.935135
0.94173
0.944607
0.947353
0.949181
0.959872
0.954963
0.952576
0.953306
0.953847
0.955285
0.952394
0.926025
0.928385
0.875986
0.753333
0.635395
0.494483
0.46
0.48619
0.564141
0.636831
0.674601
0.749582
0.803013
0.847584
0.875777
0.896115
0.912634
0.929215
0.933141
0.942513
0.943054
0.948549
0.950659
0.957085
0.950762
0.953978
0.951815
0.952683
0.953319
0.951463
0.954909
0.952761
0.914233
0.83823
0.721628
0.588044
0.476991
0.472753
0.530263
0.621901
0.703235
0.75365
0.802594
0.844804
0.872586
0.891991
0.906586
0.918181
0.929294
0.935336
0.937827
0.9418
0.944211
0.946561
0.95054
0.946997
0.949531
0.948653
0.948769
0.952735
0.963462
0.962009
0.958728
0.907601
0.807958
0.677089
0.570649
0.510977
0.52275
0.600446
0.652848
0.73179
0.785421
0.829617
0.862934
0.884754
0.902076
0.915339
0.9263
0.931472
0.937145
0.940653
0.942823
0.94519
0.952265
0.947411
0.949549
0.947795
0.947741
0.943557
0.962423
0.969642
0.966476
0.932326
0.875024
0.737904
0.627464
0.54252
0.512502
0.571242
0.639358
0.710995
0.767278
0.814388
0.853165
0.879315
0.898026
0.911604
0.921358
0.929591
0.935267
0.939507
0.942299
0.944624
0.945615
0.945521
0.947786
0.947141
0.947255
0.950148
0.962007
0.976026
0.968037
0.950687
0.910955
0.812157
0.704068
0.588064
0.550059
0.560018
0.624849
0.691193
0.760953
0.798429
0.840279
0.870695
0.892509
0.908313
0.918366
0.927771
0.933084
0.938486
0.941624
0.944588
0.946739
0.944672
0.945326
0.946538
0.946614
0.94691
0.964429
0.975527
0.968807
0.964115
0.938445
0.86692
0.760029
0.647545
0.571404
0.548882
0.60003
0.67246
0.728663
0.783215
0.827038
0.859503
0.882382
0.902191
0.915552
0.923879
0.931483
0.93633
0.941618
0.942195
0.94418
0.940089
0.948358
0.945862
0.947921
0.947239
0.966894
0.974217
0.976206
0.966637
0.950889
0.904588
0.802608
0.712825
0.608711
0.563833
0.588362
0.647554
0.70963
0.761994
0.815148
0.848689
0.876825
0.897402
0.91173
0.921944
0.930581
0.935035
0.939264
0.94127
0.94389
0.95207
0.946933
0.946874
0.948105
0.94959
0.965431
0.97025
0.978357
0.967886
0.95958
0.933778
0.836373
0.764762
0.655842
0.586677
0.577182
0.626065
0.683186
0.745529
0.794835
0.838694
0.868921
0.890467
0.908545
0.919588
0.928253
0.935204
0.939164
0.940813
0.94526
0.943663
0.946386
0.946938
0.945801
0.949572
0.96993
0.971972
0.976155
0.968662
0.964737
0.944965
0.907874
0.814995
0.712535
0.628439
0.583427
0.611162
0.660061
0.721833
0.774285
0.826636
0.863713
0.883739
0.903544
0.9172
0.928045
0.933218
0.937716
0.940178
0.941283
0.946022
0.945406
0.945465
0.945701
0.952132
0.969892
0.972828
0.971548
0.969885
0.965812
0.961484
0.931276
0.870907
0.76662
0.669281
0.597639
0.607147
0.646856
0.703467
0.762452
0.808491
0.861267
0.877958
0.898735
0.913601
0.923805
0.930129
0.935851
0.939848
0.943018
0.943761
0.944105
0.944949
0.94763
0.952285
0.972018
0.973168
0.972773
0.970608
0.970631
0.966214
0.944413
0.907846
0.816216
0.726633
0.650719
0.602298
0.630504
0.684155
0.744093
0.793505
0.837729
0.869634
0.890864
0.910587
0.920814
0.927352
0.935006
0.938134
0.942602
0.944583
0.944389
0.945507
0.944271
0.954669
0.972671
0.974831
0.9745
0.97124
0.9714
0.967669
0.955822
0.928253
0.870634
0.785314
0.693584
0.628698
0.632729
0.673452
0.721574
0.775987
0.82194
0.864107
0.886677
0.904968
0.918468
0.927701
0.933745
0.937663
0.941556
0.942835
0.944505
0.945136
0.943716
0.957449
0.975145
0.976696
0.97595
0.973337
0.971748
0.96999
0.963929
0.943354
0.905792
0.836038
0.751445
0.662864
0.633873
0.658754
0.704027
0.76485
0.806726
0.844341
0.879715
0.899401
0.915758
0.926534