/*--------------------------------*- C++ -*----------------------------------*\
| =========                 |                                                 |
| \\      /  F ield         | OpenFOAM: The Open Source CFD Toolbox           |
|  \\    /   O peration     | Version:  2312                                  |
|   \\  /    A nd           | Website:  www.openfoam.com                      |
|    \\/     M anipulation  |                                                 |
\*---------------------------------------------------------------------------*/
FoamFile
{
    version     2.0;
    format      ascii;
    arch        "LSB;label=32;scalar=64";
    class       volScalarField;
    location    "20000";
    object      Pw;
}
// * * * * * * * * * * * * * * * * * * * * * * * * * * * * * * * * * * * * * //

dimensions      [0 0 -2 0 0 0 0];

internalField   nonuniform List<scalar> 
29400
(
1.281e+07
4.30088e+07
9.75465e+07
1.6308e+08
2.32956e+08
2.99881e+08
3.60816e+08
4.14514e+08
4.60917e+08
5.00576e+08
5.34253e+08
5.62746e+08
5.86805e+08
6.07096e+08
6.24194e+08
6.38584e+08
6.50672e+08
6.60792e+08
6.69219e+08
6.76173e+08
6.81844e+08
6.86398e+08
6.89973e+08
6.92695e+08
6.94684e+08
6.96055e+08
6.96924e+08
6.97425e+08
6.97645e+08
7.00646e+08
2.49765e+06
1.03851e+07
2.61466e+07
4.33858e+07
6.21819e+07
8.14943e+07
1.00448e+08
1.18492e+08
1.353e+08
1.50718e+08
1.6471e+08
1.77313e+08
1.88602e+08
1.98676e+08
2.0764e+08
2.15603e+08
2.22667e+08
2.2893e+08
2.34482e+08
2.39405e+08
2.4377e+08
2.47644e+08
2.51085e+08
2.54148e+08
2.5688e+08
2.59326e+08
2.61523e+08
2.63507e+08
2.65309e+08
2.67184e+08
1.16183e+06
1.94141e+06
4.1518e+06
5.63256e+06
7.06679e+06
8.60845e+06
1.03184e+07
1.2186e+07
1.41785e+07
1.62533e+07
1.83663e+07
2.04768e+07
2.2549e+07
2.45537e+07
2.64683e+07
2.82773e+07
2.99713e+07
3.15466e+07
3.30035e+07
3.4345e+07
3.55766e+07
3.67052e+07
3.77381e+07
3.86826e+07
3.9546e+07
4.03355e+07
4.10573e+07
4.17208e+07
4.23224e+07
4.30272e+07
1.07721e+06
1.68348e+06
3.45488e+06
4.0594e+06
4.32004e+06
4.48171e+06
4.64682e+06
4.84934e+06
5.10085e+06
5.40058e+06
5.74037e+06
6.10789e+06
6.48901e+06
6.86979e+06
7.23812e+06
7.58463e+06
7.90311e+06
8.19034e+06
8.44535e+06
8.6689e+06
8.86314e+06
9.03099e+06
9.17546e+06
9.29951e+06
9.40599e+06
9.49756e+06
9.5764e+06
9.63888e+06
9.6834e+06
9.74179e+06
1.03282e+06
1.64526e+06
3.42408e+06
4.0196e+06
4.22759e+06
4.30962e+06
4.3727e+06
4.45534e+06
4.57154e+06
4.72278e+06
4.90333e+06
5.10352e+06
5.31207e+06
5.51799e+06
5.71196e+06
5.88719e+06
6.03961e+06
6.16759e+06
6.27142e+06
6.3528e+06
6.4143e+06
6.45877e+06
6.48903e+06
6.50773e+06
6.51726e+06
6.51968e+06
6.51669e+06
6.50966e+06
6.49996e+06
6.46682e+06
1.02823e+06
1.62258e+06
3.34233e+06
3.95883e+06
4.186e+06
4.284e+06
4.36087e+06
4.45327e+06
4.57577e+06
4.73006e+06
4.91045e+06
5.10729e+06
5.30935e+06
5.50575e+06
5.68747e+06
5.84804e+06
5.98383e+06
6.09373e+06
6.17857e+06
6.24035e+06
6.28188e+06
6.30636e+06
6.3169e+06
6.31638e+06
6.30731e+06
6.29189e+06
6.27188e+06
6.2487e+06
6.2238e+06
6.16786e+06
1.03322e+06
1.57543e+06
3.22691e+06
3.85935e+06
4.11228e+06
4.23014e+06
4.32116e+06
4.42448e+06
4.55521e+06
4.71569e+06
4.90072e+06
5.10106e+06
5.30582e+06
5.5044e+06
5.68796e+06
5.85017e+06
5.98748e+06
6.09876e+06
6.18376e+06
6.24365e+06
6.28379e+06
6.30729e+06
6.31718e+06
6.31628e+06
6.30707e+06
6.29164e+06
6.27174e+06
6.24876e+06
6.22404e+06
6.16536e+06
1.00173e+06
1.5122e+06
3.08958e+06
3.72815e+06
4.00026e+06
4.13604e+06
4.24184e+06
4.35694e+06
4.49708e+06
4.66495e+06
4.8558e+06
5.06076e+06
5.2693e+06
5.47112e+06
5.65757e+06
5.8225e+06
5.9624e+06
6.07617e+06
6.1646e+06
6.22989e+06
6.27491e+06
6.3027e+06
6.31633e+06
6.31864e+06
6.31215e+06
6.29901e+06
6.28101e+06
6.25958e+06
6.23609e+06
6.17689e+06
960415
1.44938e+06
2.94065e+06
3.57601e+06
3.86162e+06
4.01159e+06
4.12945e+06
4.25421e+06
4.40182e+06
4.57533e+06
4.77035e+06
4.97843e+06
5.1894e+06
5.39329e+06
5.58172e+06
5.74869e+06
5.89079e+06
6.00698e+06
6.09813e+06
6.16631e+06
6.21421e+06
6.24488e+06
6.26135e+06
6.26642e+06
6.26259e+06
6.25196e+06
6.23631e+06
6.21708e+06
6.19571e+06
6.13811e+06
930323
1.38573e+06
2.78671e+06
3.4116e+06
3.70538e+06
3.86553e+06
3.99213e+06
4.12353e+06
4.2758e+06
4.45224e+06
4.64882e+06
4.85751e+06
5.06854e+06
5.2723e+06
5.46069e+06
5.62792e+06
5.77068e+06
5.88796e+06
5.98056e+06
6.05053e+06
6.10055e+06
6.13356e+06
6.15251e+06
6.16013e+06
6.15884e+06
6.15072e+06
6.13749e+06
6.12062e+06
6.10153e+06
6.04639e+06
899912
1.32234e+06
2.63225e+06
3.24126e+06
3.53883e+06
3.70573e+06
3.83811e+06
3.97345e+06
4.12782e+06
4.30475e+06
4.50055e+06
4.70761e+06
4.91657e+06
5.1182e+06
5.30473e+06
5.47054e+06
5.61248e+06
5.72955e+06
5.82254e+06
5.89342e+06
5.94479e+06
5.9795e+06
6.0004e+06
6.01014e+06
6.01107e+06
6.00521e+06
5.99424e+06
5.97961e+06
5.96273e+06
5.91043e+06
869001
1.26034e+06
2.47996e+06
3.0692e+06
3.36722e+06
3.53823e+06
3.67409e+06
3.81127e+06
3.96574e+06
4.14124e+06
4.33442e+06
4.53806e+06
4.74325e+06
4.94116e+06
5.1243e+06
5.28732e+06
5.42715e+06
5.54286e+06
5.6352e+06
5.70605e+06
5.75794e+06
5.79361e+06
5.81582e+06
5.82712e+06
5.82979e+06
5.82577e+06
5.8167e+06
5.804e+06
5.78907e+06
5.73963e+06
838807
1.20015e+06
2.33132e+06
2.89794e+06
3.19391e+06
3.36715e+06
3.50491e+06
3.64246e+06
3.79565e+06
3.96835e+06
4.15758e+06
4.35654e+06
4.55675e+06
4.74976e+06
4.92842e+06
5.08759e+06
5.22433e+06
5.33777e+06
5.42862e+06
5.49869e+06
5.5504e+06
5.58641e+06
5.60935e+06
5.62171e+06
5.62565e+06
5.62307e+06
5.61554e+06
5.60445e+06
5.59116e+06
5.54449e+06
809029
1.14193e+06
2.18713e+06
2.72893e+06
3.0209e+06
3.19505e+06
3.33368e+06
3.47069e+06
3.62173e+06
3.79081e+06
3.97527e+06
4.16875e+06
4.36318e+06
4.55054e+06
4.72398e+06
4.8786e+06
5.0116e+06
5.12212e+06
5.21087e+06
5.27959e+06
5.33059e+06
5.36643e+06
5.38966e+06
5.40264e+06
5.40747e+06
5.40597e+06
5.39966e+06
5.38988e+06
5.37794e+06
5.33387e+06
779561
1.08568e+06
2.04781e+06
2.56307e+06
2.84942e+06
3.02346e+06
3.16228e+06
3.29825e+06
3.44667e+06
3.61169e+06
3.79096e+06
3.97852e+06
4.16677e+06
4.34806e+06
4.51587e+06
4.66553e+06
4.79438e+06
4.9016e+06
4.98786e+06
5.05484e+06
5.10477e+06
5.1401e+06
5.16328e+06
5.17657e+06
5.18199e+06
5.1813e+06
5.17594e+06
5.16723e+06
5.15641e+06
5.11475e+06
750403
1.03137e+06
1.91364e+06
2.40097e+06
2.68027e+06
2.85337e+06
2.9919e+06
3.12652e+06
3.27212e+06
3.43289e+06
3.60681e+06
3.78831e+06
3.97022e+06
4.14527e+06
4.30729e+06
4.45182e+06
4.57631e+06
4.68002e+06
4.76359e+06
4.82863e+06
4.87727e+06
4.91187e+06
4.93478e+06
4.94817e+06
4.95399e+06
4.9539e+06
4.94932e+06
4.94148e+06
4.93161e+06
4.89221e+06
721524
978925
1.78483e+06
2.24318e+06
2.51411e+06
2.6855e+06
2.82334e+06
2.95642e+06
3.09911e+06
3.25561e+06
3.42417e+06
3.59962e+06
3.77519e+06
3.94402e+06
4.10024e+06
4.23961e+06
4.35972e+06
4.45986e+06
4.54065e+06
4.60365e+06
4.6509e+06
4.68466e+06
4.70719e+06
4.72056e+06
4.72664e+06
4.72704e+06
4.72309e+06
4.71602e+06
4.70696e+06
4.66971e+06
692903
928285
1.66155e+06
2.09018e+06
2.35156e+06
2.52048e+06
2.65725e+06
2.78863e+06
2.92836e+06
3.08063e+06
3.24391e+06
3.4134e+06
3.58274e+06
3.74544e+06
3.89594e+06
4.03021e+06
4.14598e+06
4.24258e+06
4.32062e+06
4.38157e+06
4.4274e+06
4.46028e+06
4.48237e+06
4.49567e+06
4.50195e+06
4.50276e+06
4.49938e+06
4.49299e+06
4.48468e+06
4.44945e+06
664535
879385
1.54392e+06
1.94243e+06
2.19317e+06
2.35891e+06
2.49422e+06
2.62371e+06
2.76046e+06
2.90854e+06
3.06663e+06
3.23029e+06
3.39353e+06
3.55024e+06
3.69515e+06
3.82445e+06
3.93598e+06
4.02912e+06
4.10444e+06
4.16338e+06
4.20781e+06
4.23982e+06
4.26147e+06
4.27467e+06
4.28112e+06
4.28231e+06
4.27946e+06
4.27371e+06
4.26609e+06
4.23282e+06
636419
832163
1.43204e+06
1.80032e+06
2.03949e+06
2.20134e+06
2.33477e+06
2.46219e+06
2.5959e+06
2.73982e+06
2.89282e+06
3.05076e+06
3.20806e+06
3.35892e+06
3.49839e+06
3.62284e+06
3.73025e+06
3.82001e+06
3.89271e+06
3.94969e+06
3.99277e+06
4.02393e+06
4.04514e+06
4.05824e+06
4.06486e+06
4.06641e+06
4.06408e+06
4.05894e+06
4.05199e+06
4.02062e+06
608562
786563
1.32594e+06
1.66423e+06
1.89103e+06
2.0483e+06
2.17941e+06
2.30454e+06
2.43512e+06
2.57489e+06
2.72287e+06
2.87522e+06
3.02669e+06
3.17186e+06
3.30602e+06
3.42575e+06
3.52914e+06
3.61564e+06
3.68578e+06
3.74088e+06
3.78264e+06
3.81299e+06
3.83379e+06
3.8468e+06
3.85359e+06
3.85549e+06
3.85366e+06
3.84912e+06
3.84282e+06
3.81329e+06
580977
742532
1.22562e+06
1.53443e+06
1.74822e+06
1.90027e+06
2.02862e+06
2.1512e+06
2.27854e+06
2.41414e+06
2.55714e+06
2.70399e+06
2.84976e+06
2.98935e+06
3.11833e+06
3.23347e+06
3.33295e+06
3.41626e+06
3.48393e+06
3.53719e+06
3.57769e+06
3.60724e+06
3.62765e+06
3.64059e+06
3.64754e+06
3.6498e+06
3.64846e+06
3.64451e+06
3.63884e+06
3.61111e+06
553683
700024
1.13102e+06
1.41118e+06
1.61147e+06
1.75769e+06
1.88283e+06
2.00258e+06
2.12653e+06
2.25792e+06
2.39596e+06
2.53737e+06
2.67754e+06
2.81166e+06
2.93556e+06
3.04621e+06
3.14187e+06
3.22208e+06
3.28733e+06
3.3388e+06
3.37807e+06
3.40687e+06
3.4269e+06
3.43976e+06
3.44688e+06
3.44949e+06
3.44863e+06
3.44526e+06
3.4402e+06
3.41422e+06
526705
659000
1.04208e+06
1.29462e+06
1.48111e+06
1.62095e+06
1.74242e+06
1.85904e+06
1.97942e+06
2.10652e+06
2.23961e+06
2.37563e+06
2.51027e+06
2.63901e+06
2.75793e+06
2.86417e+06
2.95609e+06
3.03326e+06
3.09614e+06
3.14587e+06
3.18394e+06
3.21198e+06
3.23164e+06
3.24443e+06
3.25172e+06
3.25466e+06
3.25427e+06
3.25145e+06
3.247e+06
3.22271e+06
500074
619428
958663
1.18486e+06
1.35739e+06
1.49038e+06
1.60774e+06
1.7209e+06
1.83753e+06
1.96024e+06
2.08835e+06
2.219e+06
2.34817e+06
2.47161e+06
2.58562e+06
2.68752e+06
2.77577e+06
2.84994e+06
2.9105e+06
2.95851e+06
2.99538e+06
3.02269e+06
3.04197e+06
3.05469e+06
3.06212e+06
3.06539e+06
3.06545e+06
3.06316e+06
3.05929e+06
3.03664e+06
473826
581281
880621
1.08193e+06
1.24051e+06
1.36624e+06
1.47906e+06
1.58845e+06
1.7011e+06
1.81931e+06
1.9424e+06
2.0677e+06
2.19143e+06
2.30962e+06
2.4188e+06
2.51642e+06
2.60104e+06
2.67226e+06
2.73052e+06
2.77682e+06
2.81251e+06
2.83907e+06
2.85798e+06
2.8706e+06
2.87816e+06
2.88173e+06
2.88221e+06
2.88043e+06
2.87711e+06
2.85605e+06
448001
544540
807779
985777
1.1306e+06
1.24874e+06
1.35663e+06
1.46192e+06
1.57038e+06
1.68396e+06
1.80197e+06
1.92191e+06
2.04023e+06
2.15322e+06
2.2576e+06
2.35099e+06
2.43202e+06
2.50032e+06
2.5563e+06
2.6009e+06
2.63541e+06
2.66122e+06
2.67972e+06
2.69222e+06
2.69989e+06
2.70373e+06
2.70461e+06
2.70332e+06
2.70052e+06
2.68098e+06
422642
509193
739939
896315
1.02769e+06
1.13801e+06
1.24063e+06
1.3415e+06
1.44555e+06
1.55436e+06
1.66723e+06
1.78179e+06
1.89472e+06
2.00254e+06
2.10217e+06
2.19137e+06
2.26884e+06
2.33424e+06
2.38794e+06
2.43084e+06
2.46415e+06
2.48919e+06
2.50727e+06
2.51963e+06
2.52737e+06
2.53146e+06
2.5327e+06
2.53185e+06
2.52955e+06
2.51147e+06
397797
475230
676890
813392
931771
1.03414e+06
1.13116e+06
1.22735e+06
1.32676e+06
1.43066e+06
1.53832e+06
1.64748e+06
1.75504e+06
1.85772e+06
1.95263e+06
2.03765e+06
2.11159e+06
2.1741e+06
2.22553e+06
2.26673e+06
2.29882e+06
2.32306e+06
2.3407e+06
2.35288e+06
2.36066e+06
2.36496e+06
2.36653e+06
2.36609e+06
2.36424e+06
2.34756e+06
373512
442648
618408
736806
842753
937115
1.0283e+06
1.11954e+06
1.21412e+06
1.31299e+06
1.41537e+06
1.51911e+06
1.62129e+06
1.71885e+06
1.80907e+06
1.88995e+06
1.96037e+06
2.02e+06
2.06915e+06
2.10863e+06
2.13949e+06
2.16291e+06
2.18006e+06
2.19204e+06
2.19982e+06
2.20429e+06
2.20615e+06
2.20608e+06
2.20465e+06
2.1893e+06
349838
411444
564265
666320
760494
846895
932066
1.01813e+06
1.10771e+06
1.20143e+06
1.29846e+06
1.39676e+06
1.49358e+06
1.58604e+06
1.67159e+06
1.74836e+06
1.81527e+06
1.87201e+06
1.91889e+06
1.95663e+06
1.98624e+06
2.00881e+06
2.02544e+06
2.03716e+06
2.04492e+06
2.0495e+06
2.05162e+06
2.05188e+06
2.05083e+06
2.03674e+06
326822
381620
514227
601661
684796
763367
842403
923135
1.00755e+06
1.09602e+06
1.18765e+06
1.2805e+06
1.37197e+06
1.45936e+06
1.54027e+06
1.61294e+06
1.67636e+06
1.73022e+06
1.77481e+06
1.8108e+06
1.83912e+06
1.86081e+06
1.87689e+06
1.88833e+06
1.896e+06
1.90068e+06
1.903e+06
1.90356e+06
1.90284e+06
1.88994e+06
304513
353175
468064
542535
615418
686369
759224
834497
913646
996788
1.08299e+06
1.17038e+06
1.25652e+06
1.33886e+06
1.41516e+06
1.48376e+06
1.54371e+06
1.5947e+06
1.63699e+06
1.67121e+06
1.69822e+06
1.71899e+06
1.73448e+06
1.74559e+06
1.75315e+06
1.75787e+06
1.76035e+06
1.76116e+06
1.76075e+06
1.74897e+06
282954
326109
425546
488628
552081
615692
682388
752137
825946
903716
984477
1.06643e+06
1.14726e+06
1.2246e+06
1.29632e+06
1.36088e+06
1.41736e+06
1.46549e+06
1.50547e+06
1.53791e+06
1.56359e+06
1.58342e+06
1.59828e+06
1.60903e+06
1.61643e+06
1.62115e+06
1.62375e+06
1.62477e+06
1.62461e+06
1.61389e+06
262189
300421
386450
439615
494475
551088
611715
675930
744368
816754
892082
968622
1.0442e+06
1.11657e+06
1.18377e+06
1.24432e+06
1.29737e+06
1.34264e+06
1.38032e+06
1.41096e+06
1.43529e+06
1.45414e+06
1.46834e+06
1.47869e+06
1.48589e+06
1.49057e+06
1.49326e+06
1.49444e+06
1.49451e+06
1.48477e+06
242254
276104
350559
395171
442270
492278
546985
605711
668796
735819
805753
876935
947317
1.01479e+06
1.07751e+06
1.1341e+06
1.18375e+06
1.22618e+06
1.26156e+06
1.2904e+06
1.31336e+06
1.33121e+06
1.34472e+06
1.35463e+06
1.3616e+06
1.3662e+06
1.36894e+06
1.37025e+06
1.37049e+06
1.36168e+06
223182
253152
317665
354968
395125
438956
487950
541286
599079
660798
725404
791304
856568
919224
977540
1.03022e+06
1.07651e+06
1.11612e+06
1.14922e+06
1.17625e+06
1.19783e+06
1.21467e+06
1.22747e+06
1.23691e+06
1.24361e+06
1.2481e+06
1.25084e+06
1.25224e+06
1.25264e+06
1.24468e+06
205001
231549
287567
318687
352688
390798
434334
482430
535036
591546
650920
711640
771887
829817
883812
932659
975633
1.01247e+06
1.04331e+06
1.06854e+06
1.08873e+06
1.10453e+06
1.1166e+06
1.12555e+06
1.13195e+06
1.1363e+06
1.13901e+06
1.14046e+06
1.14098e+06
1.13381e+06
187732
211278
260073
286016
314609
347471
385844
428892
476459
527891
582162
637826
693178
746496
796269
841362
881091
915204
943804
967251
986061
1.00082e+06
1.01214e+06
1.02057e+06
1.02665e+06
1.03082e+06
1.03348e+06
1.03496e+06
1.03556e+06
1.02913e+06
171389
192316
235001
256659
280545
308635
342169
380402
423116
469635
518959
569720
620321
669159
714826
756264
792827
824269
850674
872362
889800
903523
914076
921982
927714
931691
934262
935744
936403
930646
155981
174635
212178
230331
250159
273951
302995
336678
374756
416559
461121
507154
553170
597680
639375
677270
710758
739600
763861
783824
799909
812598
822389
829755
835127
838886
841350
842808
843504
838367
141508
158199
191440
206766
223132
243087
268003
297424
331114
368423
408434
449938
491556
531907
569780
604260
634778
661103
683282
701563
716321
727993
737024
743845
748846
752373
754712
756126
756838
752268
127963
142967
172628
185714
199156
215720
236875
262340
291910
324973
360665
397861
435285
471665
505882
537090
564756
588658
608826
625477
638946
649620
657903
664180
668804
672087
674287
675640
676351
672299
115330
128891
155593
166941
177945
191540
209299
231126
256861
285942
317566
350691
384144
416756
447498
475589
500533
522116
540356
555439
567660
577366
584916
590656
594903
597935
599985
601265
601961
598379
103584
115744
140017
150228
159230
170252
184976
203483
225678
251056
278876
308183
337902
366961
394421
419562
441925
461304
477706
491290
502314
511087
517926
523140
527012
529791
531684
532881
533551
530395
92684.4
102320
124784
135369
142759
151579
163613
179121
198075
220035
244327
270078
296308
322043
346424
368791
388722
406021
420683
432844
442729
450607
456762
461467
464972
467498
469230
470338
470972
468200
82583.1
88005.1
108971
122168
128298
135260
144937
157757
173768
192599
213642
236107
259103
281747
303259
323038
340693
356041
369067
379887
388694
395724
401226
405441
408589
410867
412437
413450
414042
411613
73226.1
74641.5
93822.3
110435
115626
121049
128685
139120
152481
168470
186545
205995
226015
245806
264664
282043
297584
311115
322615
332179
339974
346205
351089
354836
357642
359678
361087
362004
362547
360423
64566.7
63694.7
80960.5
99987.3
104530
108714
114610
122949
133946
147373
162759
179463
196764
213942
230363
245532
259123
270974
281060
289458
296310
301792
306095
309401
311880
313683
314935
315754
316244
314389
56574.6
55024.3
82376.2
90655
94806
98032.7
102474
108997
117903
129042
142008
156232
171067
185869
200067
213217
225023
235332
244117
251439
257418
262206
265967
268859
271030
272610
273710
274431
274865
273244
48587.8
47996.2
73772.2
81396.8
86261.3
88790.9
92049.3
97022.4
104102
113215
124022
136022
148639
161296
173483
184802
194984
203888
211484
217821
222998
227147
230406
232912
234794
236165
237117
237742
238117
236701
40298
42129.9
55746.1
72061.4
78725
80788.2
83118.7
86795.7
92299.5
99637
108535
118558
129193
139929
150311
159980
168697
176331
182849
188290
192736
196300
199098
201249
202862
204035
204848
205380
205694
204453
33506.4
37124.2
50128.6
63454.8
72058.1
73843.5
75476.2
78095.5
82261.9
88060.9
95287.2
103566
112447
121475
130247
138443
145847
152340
157889
162522
166308
169339
171718
173543
174909
175898
176580
177022
177276
176183
28179.1
32786.1
45373
56289.5
66158.2
67804.2
68936.7
70715.5
73766.2
78248.7
84024.5
90779.1
98118.8
105642
112990
119880
126118
131595
136278
140187
143380
145934
147933
149463
150602
151423
151982
152339
152533
151566
23923.8
29000.2
41306.7
50666.6
60957.6
62553.2
63343
64471.2
66607.3
69977
74507
79940.6
85937.4
92144
98243.4
103984
109193
113773
117689
120957
123622
125749
127409
128673
129608
130275
130722
130999
131136
130273
20426.3
25690.4
37808.7
52038.5
56413
58007.6
58571.6
59206.9
60604.6
63044.1
66513
70810.3
75645.1
80708.1
85719.7
90457.4
94766.6
98559
101802
104505
106705
108455
109814
110841
111594
112122
112468
112672
112755
111980
17488.4
22800.7
34795.2
48019.2
52484.7
54105
54528.2
54797.7
55606.6
57275.4
59846.6
63172
67006.8
71082.1
75151.7
79018.9
82546
85653.1
88309
90518.8
92311.7
93731
94825.7
95645.5
96237.3
96643
96897.9
97036
97069.2
96367
14991.1
20288.3
32207.9
40225
48850
50810.2
51144.3
51145.4
51490.3
52525.4
54341.2
56838.5
59815.7
63040.9
66298.1
69413.1
72263.6
74777.2
76924
78705.6
80144.8
81276.7
82141.3
82779.8
83230.8
83529.1
83704.3
83784.1
83771.9
83130.7
12857.8
18115.9
29996.6
41765
46381.3
48079.1
48365.7
48173.2
48155.7
48674.2
49857.8
51651.7
53895.2
56390.3
58948.2
61415
63681.6
65682.6
67389.2
68800.5
69933.6
70816.5
71481.8
71963
72291.8
72496.8
72602.5
72631.2
72578.4
71987.9
11026.1
16246
28122.4
39383.6
42256.8
45867
46137.7
45812.8
45518.3
45620.8
46279.6
47479.1
49096.5
50965.5
52922.3
54831
56594.3
58152.9
59479.4
60570.6
61439
62106.5
62599.3
62944.3
63167.3
63291.4
63336.8
63320.9
63231.8
62682.9
9453.62
14638.1
26550.6
37465.1
40147.9
44126.3
44407.4
44000.7
43501.6
43275.9
43504.6
44205.8
45291.6
46625.5
48066.7
49495.5
50825.3
52002.3
53000.5
53814.9
54454.1
54935.1
55278.2
55505.2
55636.4
55690.3
55683.2
55628.2
55506.5
54991.5
8103.93
13267.9
25239.5
33845.6
38791.2
42804.5
43120.6
42675.6
42033.5
41556.1
41438.6
41727.8
42366.7
43246.1
44246.6
45264
46221.5
47069.9
47784.7
48359.7
48800.4
49119.4
49332.7
49457.1
49508.5
49501.5
49448.8
49359.3
49208.4
48720.1
6917.71
12091.4
24150.4
34679.6
37879.4
41839.2
42224.4
41777.5
41045
40382.5
39993.5
39947.6
40215.3
40712.8
41340.3
42007.3
42646.2
43212.6
43683.7
44052.1
44321.1
44499.8
44600.4
44635.6
44617.8
44557.8
44465.5
44345.9
44168.7
43701.4
5857.66
11026.9
23240.9
32400.5
37288.6
41192.4
41669.9
41249.2
40469.8
39679.1
39084.5
38772.4
38737
38917.1
39231.7
39603.7
39972.8
40299.4
40562
40753.1
40874.2
40931.9
40935.2
40893.6
40816.1
40710.8
40584.7
40438.8
40238.4
39787.1
4919.77
10037.5
22498.6
33122.5
36987.6
40822.5
41405.4
41034.5
40244.2
39373.1
38629.7
38112.5
37834.6
37755.3
37810.7
37936.3
38079.3
38204.1
38290.6
38331.1
38326
38280.1
38199.9
38092.7
37964.7
37821.5
37667.3
37499.6
37279.6
36841
4093.31
9113.76
21864.4
31736.5
36905.3
40679.9
41375.8
41078.3
40307.2
39394.9
38550.3
37880.5
37413.3
37125.6
36969.2
36891.5
36847.1
36803.8
36742.8
36656.5
36544.6
36410.7
36259.8
36097
35926.7
35752.3
35575.5
35389.9
35153.9
34726.2
3380.31
8244.24
21189.1
32317.2
36989.1
40638.8
41551.5
41332.2
40600.6
39678.1
38770.8
37991.9
37380.5
36927.5
36599.8
36356
36157.7
35975.5
35791.9
35599.4
35397.5
35189
34978.1
34768.6
34563.4
34363.8
34169.3
33969.7
33721.5
33304.2
2780.14
7423.13
20446.9
31500.2
37206
40513.8
41898.2
41758.5
41075.5
40161.9
39220
38366.8
37647.9
37064.8
36598.1
36218.5
35893.9
35597.4
35311.7
35029.7
34750.7
34477.9
34215
33965.1
33730
33509.6
33300.7
33089.7
32832.2
32425.1
2286.19
6666.05
19654.8
31426.4
37880.6
40701.9
42358.5
42325
41700.4
40799.5
39836.2
38932.6
38135.2
37448.7
36867.4
36375.4
35946.9
35555.6
35183.9
34824.4
34477.4
34146.8
33836.6
33549.9
33287.6
33048.2
32826.3
32605.2
32340.4
31943.4
1883.08
5981.21
18822.5
31251.8
38566.6
41183
42932.5
42969.5
42423.9
41555.8
40581.5
39640.8
38782.8
38007.6
37326
36739
36225.1
35755.2
35309.4
34880.7
34470.8
34085.2
33729.1
33406.2
33116.9
32858.5
32623.2
32392
32121
31734.4
1553.17
5357.35
17966.7
31305.4
38814
41839.7
43727.3
43743
43192.1
42376.8
41411.9
40459.3
39560.1
38699.4
37920.3
37248.7
36664.2
36128.2
35616.5
35123.3
34653.1
34213.5
33811.6
33451.8
33134.7
32856.6
32607.5
32366.4
32090.8
31715.3
1282.9
4783.37
17076.5
30939.9
39069.4
42489
44542.3
44721.1
44209
43306.9
42263.5
41317.6
40423.7
39504.3
38641.8
37902.5
37261.6
36662.7
36082.1
35520.6
34986.5
34489.1
34036.7
33635.2
33286.6
32986.6
32723
32472.4
32193.7
31830.2
1061.35
4253.69
16140.2
30485.1
39318.9
43205.3
45402.9
45692.2
45230.2
44405.6
43422.8
42402.3
41384.9
40360
39400
38621.4
37967.1
37328.7
36693.1
36076.1
35489.9
34942.4
34440.8
33993.5
33608
33283.1
33003.8
32743.4
32462.7
32111.4
879.276
3764.03
15157.7
29776.1
39506.7
43904.9
46300.5
46756.9
46351.7
45532.1
44534.7
43491.1
42463.3
41471.8
40536.4
39669.8
38866.6
38117.4
37415.2
36756
36137.2
35556.5
35011.9
34503.5
34067.1
33726.1
33449.1
33187.7
32909.1
32575.6
729.46
3311.43
14130.4
29114
39410.2
44557
47031.1
47827.6
47512.1
46735.5
45745.6
44676.6
43603
42563.5
41582.5
40671.2
39826.4
39038.9
38302.9
37615.9
36976.5
36385.7
35838.7
35333
34866.8
34437.2
34040.9
33674.2
33334
33007.9
606.084
2894.91
13064.6
28307.4
39458.7
45147.3
47851.8
48887.3
48657.4
47913.6
46927.5
45845.1
44748.1
43678.3
42657.4
41694.8
40793.3
39952.4
39169.9
38439.7
37772
37148.8
36575.8
36048.2
35563.2
35117.7
34708
34330.3
33981.7
33650.5
504.209
2514.24
11969.4
27343.5
39519.2
45858.1
48698
49944
49808.6
49099.3
48113
47008.5
45876
44764.2
43698.7
42691.9
41748.2
40868.2
40048.8
39291.8
38594
37947.1
37350.8
36802.1
36297.8
35834.4
35408.8
35017.9
34658.9
34320.9
420.033
2169.81
10859.6
26218.3
39289.5
46271
49531.4
51005.8
50982
50319.1
49341.9
48223.5
47062.6
45914.5
44808.9
43760.9
42776.9
41858.3
41001
40223.4
39492.4
38821.7
38204.1
37636.3
37114.7
36636.1
36197.1
35794.6
35425.4
35079.3
350.678
1862.34
9755.36
24923.1
38890
46498.9
50350.9
52071.8
52186.3
51584.4
50624.6
49498
48313.2
47133.3
45992.3
44907.8
43888.2
42930.9
42054.9
41237.2
40482.5
39788.1
39149.9
38564
38026.4
37533.5
37081.8
36667.7
36288.2
35933.7
293.763
1590.82
8674.77
23471.4
38233.2
46793.8
51146.3
53067.9
53433.8
52909.4
51976.2
50846.7
49641.8
48433.1
47259
46139.4
45085
44095
43190.7
42339.5
41559
40840.5
40180.4
39574.8
39019.5
38510.7
38044.8
37618.1
37227.2
36862.8
247.317
1354.18
7632.45
21877.5
37440.5
47058.8
51901.3
54141.6
54732.6
54301.7
53403.7
52276.6
51055.4
49820.7
48615
47461.4
46370.5
45352.6
44408.6
43531.1
42722.6
41978.6
41295.1
40668.1
40093.5
39567.3
39085.5
38644.3
38240.3
37864.4
209.633
1150.73
6644.24
20160.7
36419.5
47105.6
52604.4
55251.1
56085.6
55767.2
54914.2
53796.2
52563.4
51304.6
50067.8
48880.1
47750.5
46702.3
45721.8
44813.6
43975
43203.2
42494.1
41843.7
41247.8
40702.1
40202.6
39745.4
39326.7
38937.8
179.2
978.082
5727.49
18352.5
35135.6
46942.3
53310.3
56378.1
57490.3
57309.7
56516.1
55415.7
54175.8
52894.3
51626.2
50403
49235.3
48153.8
47134.7
46192.2
45321.5
44519.7
43782.9
43107
42487.8
41920.8
41402
40927.2
40492.5
40089.3
154.677
833.17
4894.69
16484.6
33572.1
46693.2
53848.7
57487
58919.4
58937.2
58219.6
57146.1
55903.6
54600.6
53300.6
52040.5
50833.3
49714.3
48655
47675.7
46770.1
45935.8
45168.8
44465.1
43820.3
43229.9
42689.7
42195.5
41743.2
41324.3
134.954
712.837
4153.53
14604.7
31714.2
46144.2
54256.7
58591
60407.1
60652.5
60032.7
58997.9
57757.9
56434.9
55103.1
53804.9
52557
51396.9
50295.7
49276.7
48333.5
47463.9
46664
45929.8
45257
44640.9
44077.2
43561.5
43089.8
42653.4
119.194
614.155
3508.28
12761.3
29563.9
45256.4
54606.2
59680.7
61952.7
62460.2
61967
60984.3
59752.2
58411.3
57047.9
55710.8
54420.8
53216
52070.9
51009.4
50025.8
49118
48282.4
47515.1
46811.6
46167.3
45577.9
45038.7
44545.7
44090.2
106.707
534.183
2957.13
10989.2
27158.5
44072.3
54808.9
60689.2
63527.2
64370.5
64037
63119.1
61901.6
60546.8
59152.6
57775.3
56441.5
55188.6
53997.4
52890.3
51863.1
50914
50039.6
49236
48498.8
47823.5
47205.5
46640.1
46123
45645.4
96.7882
469.918
2495.69
9336.61
24552.1
42495.5
54721.8
61561.6
65130.4
66371.6
66255.3
65419.3
64225.8
62861.7
61437.7
60019.2
58640
57335.3
56095.3
54939.4
53865.3
52871.5
51954.9
51111.6
50337.4
49627.7
48977.8
48382.9
47838.7
47337
89.0059
418.854
2117.02
7843.46
21787.5
40432.7
54381.2
62367
66725.4
68466.8
68616.3
67898.7
66747
65381.1
63928.8
62468.1
61041.3
59680.8
58389
57180.7
56055.9
55013.7
54051.3
53164.9
52350.3
51602.9
50917.9
50290.4
49715.7
49184.6
83.001
378.846
1812.33
6541.12
18975
37826.1
53615.1
63064.2
68315.4
70638.5
71127.7
70576.9
69491.6
68133.3
66655.4
65152
63674.8
62252.9
60905.9
59641
58460.6
57365
56352
55418.1
54559
53770
53046.1
52382.5
51775.1
51212.6
78.4462
347.895
1570.99
5433.17
16210.6
34749.1
52375.4
63501
69798.9
72880.4
73800.6
73478.6
72484.1
71146.4
69649.9
68104.3
66572.2
65084.5
63679
62349.3
61107
59951.7
58882.2
57895.2
56986.3
56150.9
55383.9
54680.2
54034.3
53439
75.0551
324.299
1382.87
4518.32
13606.1
31256.6
50499.8
63567
71134.7
75160
76648.6
76625.9
75758.3
74460
72952.9
71365.9
69776.2
68219.5
66750.6
65347.3
64035.9
62814.1
61681.4
60634.8
59670.1
58782.7
57967.7
57219.5
56533.1
55899.2
72.6392
306.75
1238.8
3784.3
11261.1
27454.5
47819.1
63167.9
72314.3
77443.3
79672.3
80029.7
79341.8
78112.4
76607.3
74982.4
73334.5
71708.1
70167.9
68683.8
67296.2
66000.6
64797.5
63684.3
62657
61711.3
60842
60044
59311.3
58634.9
71.0451
294.314
1131
3210.64
9226.09
23533.5
44330.7
62058
73201.2
79713.2
82847.1
83696
83268.8
82147.4
80665
79012.4
77307.2
75611.2
73983.6
72415.8
70943.1
69565.1
68282.7
67094.3
65996.4
64984.4
64053.3
63197.7
62412.2
61686.8
70.011
285.609
1052.23
2773.82
7532.21
19664.6
40076.3
60164.2
73602.1
81754.1
86101.7
87650.9
87585.9
86624.6
85191.6
83522.9
81760.5
79988.4
78263.8
76604.4
75036.4
73564.7
72192
70917.6
69738.5
68650.4
67649.3
66727.1
65880.3
65098.3
69.3913
279.857
996.195
2450.07
6186.11
16087
35159.9
57171.9
73373.2
83468.2
89348.1
91912.3
92347.7
91620.3
90272.5
88601.2
86783.7
84931.5
83101.2
81343.5
79669.8
78093.2
76618.4
75246.4
73974.8
72799.6
71715.6
70718.9
69801.7
68954.5
69.081
276.428
957.777
2218.02
5158.84
12964.4
29838.5
52904.2
72269.4
84773
92499.2
96414.3
97570.8
97197.1
95991.1
94348.1
92491.8
90558.7
88620.2
86758.6
84961.2
83265.5
81674.4
80190.7
78812.7
77537
76359
75273.7
74274.9
73352.1
68.8046
274.203
932.926
2054.58
4403.83
10415.7
24541.5
47298.4
69797.3
85423
95400.7
101041
103233
103396
102435
100874
99000.6
96989.9
94941.9
92956.2
91019.3
89187.1
87462
85848.9
84347.5
82956
81667.5
80479.1
79384.1
78371.7
68.3807
272.8
917.05
1935.4
3815.23
8240.41
19145.5
39808.2
64842.1
84840.5
98007.4
106105
110077
111193
110710
109339
107490
105405
103233
101078
98971.1
96961.6
95061.3
93278.1
91614
90066.6
88634.5
87309.6
86087
84955.7
68.4318
273.209
911.071
1862.17
3414.36
6621.16
14433.1
31433.2
57076.6
81813.1
99459.2
111096
117745
120453
120811
119824
118094
115969
113664
111308
108999
106769
104648
102649
100779
99037.1
97419.6
95922.4
94539.5
93258.9
68.8611
274.366
910.547
1829.76
3197.46
5669.19
11263.3
24272.3
47857
75971.1
98839.9
114639
124675
129736
131387
131047
129576
127484
125078
122534
120021
117541
115176
112937
110836
108875
107051
105361
103799
102351
69.2493
275.385
911.683
1815.73
3081.29
5114.32
9236.38
18828.6
38640.3
67576.3
95582.5
116388
130580
138802
142310
142973
141979
140042
137592
134893
132146
129409
126775
124269
121908
119698
117641
115732
113965
112327
69.618
276.36
913.64
1812.31
3024.62
4797.62
7983.64
14995.7
30548.2
57635.6
89434.7
115846
134876
147131
153350
155556
155350
153730
151320
148503
145520
142518
139592
136789
134136
131645
129322
127164
125166
123312
69.9156
277.053
915.093
1812.65
2999
4623.06
7229.3
12457.6
24176.2
47399.9
80502.5
112627
137105
154124
164140
168621
169644
168598
166366
163485
160279
157012
153762
150626
147642
144834
142208
139765
137503
135404
70.1464
277.474
915.7
1813.6
2988.84
4531.54
6785.18
10843.9
19576.7
38173.6
69495.9
106133
137138
159502
174033
181803
184736
184657
182806
179968
176602
173070
169467
165964
162609
159437
156465
153697
151133
148754
70.3927
277.902
916.067
1814.79
2986.55
4487.48
6534.35
9844.32
16444.7
30782.1
58142.3
96306
133566
162511
182798
194913
200521
201912
200754
198130
194695
190889
186936
183032
179261
175675
172302
169154
166232
163518
70.6544
278.336
916.194
1815.6
2987.79
4470.28
6398.75
9246.31
14393.5
25273.4
47679.7
84222.6
126312
162608
189713
207341
216648
220221
220198
218033
214658
210637
206359
202040
197811
193755
189917
186319
182967
179845
70.9452
278.834
916.314
1816.03
2989.59
4465.69
6331.91
8894.5
13090.5
21402.2
38978.2
71464.3
115739
159053
193730
218317
232743
239419
241125
239781
236654
232511
227933
223160
218427
213842
209473
205357
201508
197912
71.2571
279.313
916.174
1815.55
2990.24
4465.54
6301.58
8698.26
12287.2
18806.2
32348.1
59406.8
102503
151702
194421
226893
248116
259223
263529
263513
260897
256774
251921
246672
241380
236199
231226
226518
222100
217966
71.6073
279.872
916.059
1814.71
2989.99
4466.81
6290.86
8596.62
11805.1
17126.5
27598.1
49236.8