/*--------------------------------*- C++ -*----------------------------------*\
| =========                 |                                                 |
| \\      /  F ield         | OpenFOAM: The Open Source CFD Toolbox           |
|  \\    /   O peration     | Version:  2312                                  |
|   \\  /    A nd           | Website:  www.openfoam.com                      |
|    \\/     M anipulation  |                                                 |
\*---------------------------------------------------------------------------*/
FoamFile
{
    version     2.0;
    format      ascii;
    arch        "LSB;label=32;scalar=64";
    class       volScalarField;
    location    "constant";
    object      Pwf;
}
// * * * * * * * * * * * * * * * * * * * * * * * * * * * * * * * * * * * * * //

dimensions      [0 0 0 0 0 0 0];

internalField   nonuniform List<scalar> 
29400
(
1.35613
1.29143
1.11101
1.0943
1.11244
1.04694
1.151
1.04431
1.14299
1.04739
1.16467
1.0694
1.16751
1.09078
1.1927
1.09596
1.19688
1.09515
1.19814
1.10724
1.18372
1.12589
1.12476
1.12515
1.12876
1.12054
1.13255
1.12305
1.13218
1.10144
1.25319
1.34383
1.27628
1.16694
1.10894
1.10632
1.09749
1.07283
1.09051
1.12408
1.09488
1.08446
1.08336
1.09548
1.07972
1.10831
1.0936
1.13087
1.10885
1.15656
1.12302
1.17025
1.1378
1.1912
1.15013
1.17781
1.15432
1.18792
1.15264
1.17273
1.3864
1.40181
1.23382
1.19503
1.19208
1.24021
1.26632
1.31319
1.33401
1.3689
1.41662
1.49861
1.48281
1.62425
1.61147
1.73562
1.74818
1.74677
1.7752
1.79122
1.788
1.77373
1.88913
1.76784
1.89958
1.82481
1.92172
1.84885
1.95428
1.84412
1.32057
1.27559
1.19987
1.17855
1.13531
1.14295
1.13958
1.1681
1.21263
1.22455
1.2798
1.29789
1.3247
1.37415
1.34963
1.44319
1.45147
1.50796
1.49982
1.50551
1.54157
1.56441
1.59256
1.59921
1.61548
1.64556
1.62902
1.68244
1.67132
1.70508
1.32428
1.12189
1.07763
1.0933
1.07688
1.06701
1.0608
1.07517
1.09115
1.09435
1.08517
1.11797
1.12558
1.16511
1.1431
1.16973
1.14681
1.17163
1.14514
1.17293
1.16432
1.15991
1.17377
1.17141
1.14785
1.17486
1.15877
1.1618
1.16053
1.18092
1.11141
1.04501
1.07006
1.05365
1.0563
1.03815
1.03621
1.04675
1.05607
1.07018
1.08122
1.08833
1.0879
1.10806
1.1262
1.13095
1.15674
1.16717
1.17652
1.16597
1.17564
1.17195
1.18852
1.18689
1.20317
1.18877
1.20264
1.19769
1.21327
1.2033
1.11115
1.06384
1.09602
1.05268
1.04942
1.06525
1.06136
1.06774
1.08044
1.08381
1.08087
1.08519
1.09982
1.10655
1.10975
1.13062
1.12642
1.14873
1.15083
1.16433
1.15456
1.18398
1.19441
1.22679
1.21056
1.23575
1.22268
1.23101
1.23167
1.22748
1.00399
1.08397
1.04352
1.04111
1.04702
1.07437
1.05519
1.05735
1.061
1.07482
1.06568
1.09159
1.08079
1.09855
1.1025
1.10834
1.12487
1.11863
1.13471
1.149
1.13859
1.15442
1.15291
1.16094
1.14691
1.16697
1.14842
1.16249
1.15573
1.17961
1.05032
1.05323
1.04011
1.01632
1.02696
1.04205
1.0444
1.05997
1.04659
1.05381
1.0522
1.0661
1.06005
1.08862
1.06338
1.09446
1.08102
1.0953
1.0985
1.09184
1.11954
1.11707
1.12249
1.11379
1.12093
1.12978
1.11699
1.13623
1.12039
1.14677
0.999045
1.03907
1.05125
1.03018
0.99674
1.0371
1.02426
1.03089
1.02913
1.03735
1.03633
1.04377
1.04278
1.06233
1.04572
1.06314
1.05622
1.07355
1.06341
1.07388
1.07313
1.07665
1.07176
1.07791
1.09214
1.08618
1.0819
1.10083
1.09501
1.10088
0.974777
1.05125
1.01944
1.0176
0.959229
1.02128
1.01067
1.01554
1.01854
1.0273
1.03001
1.03161
1.03691
1.03553
1.0407
1.04769
1.03581
1.05507
1.04647
1.05902
1.05612
1.0743
1.06789
1.07578
1.0725
1.0746
1.07048
1.07652
1.07069
1.07628
0.971958
1.04766
1.02398
1.015
0.998512
1.01483
1.00125
1.01879
1.00323
1.01039
1.01786
1.0271
1.02735
1.03655
1.03442
1.03837
1.03606
1.05416
1.03808
1.04922
1.04024
1.04793
1.04422
1.05648
1.05519
1.05653
1.05626
1.06335
1.05662
1.06085
0.981289
1.03303
1.03834
1.02731
0.99566
0.993978
0.988767
1.00893
1.00631
1.00584
1.00808
1.01432
1.0168
1.02129
1.02036
1.03089
1.0282
1.03958
1.03096
1.04102
1.02645
1.03835
1.02361
1.03034
1.0259
1.02811
1.03005
1.03981
1.03681
1.0378
1.00168
1.0154
1.03843
1.02091
0.98516
0.993915
0.988641
1.00061
0.98995
1.016
0.999506
1.00388
1.00749
0.999676
1.00606
1.01665
1.01519
1.01684
1.0147
1.02436
1.02252
1.02308
1.01798
1.02099
1.02008
1.02587
1.02311
1.02992
1.0287
1.03232
0.991285
1.009
1.03197
0.996518
0.979719
0.984797
0.980432
0.998918
0.983165
1.00156
0.989949
1.00814
0.990829
1.01531
1.0077
1.01054
1.00595
1.02185
1.01187
1.01988
1.01295
1.02452
1.02222
1.0302
1.03148
1.03173
1.03172
1.02993
1.02924
1.02735
0.986349
1.01606
1.03061
1.00835
0.978388
0.994797
0.98272
0.991683
0.982163
0.989739
0.985046
1.00097
0.984184
0.998072
0.993806
1.00215
0.993527
1.008
1.00177
1.01013
1.00776
1.01173
1.0124
1.019
1.03047
1.02252
1.03842
1.02624
1.03796
1.02596
0.991646
1.03269
1.02046
1.01719
0.990018
0.998999
0.9898
0.997775
0.989309
0.988052
0.994945
0.988117
0.987995
0.989034
0.981451
0.996795
0.988814
0.998268
0.995167
1.00793
1.00394
1.00389
1.00876
1.01354
1.01844
1.01509
1.02318
1.01098
1.02251
1.01031
0.986129
1.03692
1.01356
1.01319
1.00456
1.00557
0.993202
1.00638
0.990364
1.00069
0.998579
0.990908
0.995169
0.996769
0.99031
0.991903
0.98393
0.988413
0.982915
0.986295
1.00202
1.00672
1.00399
1.00413
1.00326
1.00805
1.01268
1.01193
1.02006
1.01105
0.98934
1.05896
1.00569
1.01517
1.00749
1.01207
1.00512
1.01158
0.999179
1.00682
1.00396
0.998892
1.00012
0.994473
0.9956
0.993037
0.989318
0.984593
0.989963
0.988651
0.992613
0.990237
1.00045
0.991143
0.996198
0.987465
0.998634
0.99096
0.998164
0.989945
0.993114
1.05352
1.00251
1.01054
1.00246
1.01508
1.00404
1.01682
1.0018
1.01904
1.01279
1.00814
1.00852
1.00014
1.00289
0.994944
0.998195
0.995614
0.991934
0.989055
0.996696
0.991916
0.99937
0.996348
1.00242
0.999047
1.00815
1.00281
1.00521
0.999868
0.998881
1.06574
1.00767
0.975623
1.01021
1.02281
1.01677
1.02097
1.00225
1.03222
1.01917
1.01864
1.01422
1.00539
1.01132
1.00175
1.00416
1.0009
1.00103
0.997704
0.997902
0.99541
1.00073
0.993922
1.00643
0.999488
1.01164
0.99889
1.0103
1.0104
0.998787
1.07641
1.02592
0.936842
1.01347
1.02593
1.02252
1.03303
1.01624
1.03572
1.02154
1.02607
1.01851
1.01222
1.01655
1.00734
1.01564
1.0019
1.00643
1.00227
1.00585
0.998765
1.00317
0.997701
1.0104
1.00138
1.01765
1.00872
1.01684
1.00875
0.9975
1.06699
1.03856
1.02829
1.01604
1.02865
1.02906
1.04772
1.03195
1.0449
1.02235
1.03562
1.02257
1.01521
1.02068
1.01296
1.0199
1.01072
1.01722
1.01258
1.01848
1.01653
1.02087
1.02006
1.02617
1.02286
1.03047
1.02034
1.03707
1.02454
1.00008
1.06465
1.05007
1.03881
1.01724
1.02937
1.02845
1.05435
1.03755
1.04731
1.0318
1.04024
1.03035
1.02355
1.02317
1.01893
1.02705
1.0178
1.02504
1.01883
1.02429
1.02164
1.02642
1.02399
1.03098
1.02839
1.03364
1.03116
1.03947
1.03113
1.0116
1.05919
1.06319
1.04722
1.03112
1.0335
1.03069
1.05752
1.0423
1.05
1.04042
1.04646
1.03673
1.02814
1.02871
1.02391
1.02645
1.02156
1.02841
1.02413
1.03003
1.02728
1.03658
1.03263
1.03988
1.03446
1.04063
1.03592
1.04676
1.03789
1.02076
1.071
1.08262
1.04232
1.04871
1.04733
1.03582
1.0607
1.04857
1.05481
1.04356
1.05439
1.03298
1.03652
1.03094
1.02948
1.03447
1.02445
1.03139
1.02691
1.02994
1.02161
1.04604
1.0611
1.06451
1.06459
1.06341
1.06832
1.07148
1.08192
1.01337
1.08621
1.09445
1.08723
1.0554
1.05358
1.04384
1.06237
1.05624
1.05778
1.04997
1.05464
1.04161
1.04741
1.03547
1.03214
1.0281
1.01425
1.04114
1.03716
1.05576
1.04936
1.05985
1.03198
1.03643
1.04695
1.05489
1.05273
1.06096
1.05646
1.01526
1.09457
1.10283
1.10541
1.06481
1.05352
1.05184
1.05959
1.06076
1.0676
1.05085
1.06311
1.0469
1.04948
1.03114
1.01273
1.03648
1.02763
1.03715
1.03652
1.04197
1.03545
1.04626
1.04674
1.05605
1.05215
1.05957
1.05295
1.05926
1.05844
1.02078
1.10415
1.10678
1.11362
1.07615
1.06044
1.05342
1.05631
1.06174
1.07803
1.05428
1.06061
1.05239
1.03582
1.01857
1.02778
1.04559
1.051
1.05262
1.04765
1.05134
1.045
1.05074
1.04496
1.05228
1.0484
1.05477
1.0539
1.05789
1.05899
1.03015
1.10609
0.908368
1.11536
1.08876
1.06535
1.06016
1.06045
1.05761
1.07548
1.05736
1.06375
1.05452
1.00781
1.06129
1.05943
1.06014
1.05532
1.06311
1.05913
1.05446
1.05345
1.05495
1.04946
1.05691
1.05365
1.05635
1.05658
1.05644
1.05759
1.04214
1.10943
1.1402
1.11621
1.09646
1.07483
1.05993
1.06478
1.06042
1.07733
1.06347
1.06996
0.995169
1.06642
1.06711
1.06611
1.06076
1.06335
1.05896
1.06221
1.06187
1.06124
1.05979
1.05793
1.05935
1.05167
1.06121
1.06123
1.0666
1.06897
1.06112
1.11801
1.14891
1.12377
1.1062
1.08029
1.06124
1.07126
1.06232
1.08205
1.0771
1.06898
1.07234
1.07611
1.0655
1.07028
1.06098
1.06344
1.06071
1.06498
1.06668
1.06942
1.06506
1.05861
1.06839
1.06954
1.07235
1.07195
1.0766
1.07675
1.07082
1.13715
1.1538
1.13055
1.10972
1.07982
1.06618
1.0793
1.07824
1.08478
1.08283
1.00418
1.07707
1.07533
1.07037
1.06617
1.06707
1.06652
1.06311
1.06349
1.06563
1.07032
1.06768
1.07038
1.07152
1.07581
1.07769
1.07768
1.07852
1.07188
1.08058
1.14167
1.16106
1.12865
1.1134
1.08205
1.06488
1.07913
1.08189
1.08691
1.07542
1.05082
1.07756
1.07911
1.07316
1.06978
1.06994
1.0673
1.05832
1.06568
1.06607
1.07138
1.06369
1.06704
1.0657
1.07424
1.0776
1.08164
1.08428
1.07727
1.08373
1.15676
1.16328
1.13039
1.11649
1.10665
1.08635
1.06741
1.08418
1.08773
1.08127
1.07869
1.07833
1.0787
1.0734
1.07361
1.07134
1.07032
1.06641
1.06857
1.06562
1.06375
1.06819
1.06837
1.07034
1.06997
1.07146
1.07306
1.084
1.08009
1.08161
1.16167
1.1624
1.13758
1.1195
1.1136
1.08285
1.07453
1.0769
1.08158
1.08852
1.08835
1.07715
1.08413
1.07922
1.08531
1.06928
1.07227
1.06975
1.07121
1.06081
1.06757
1.06444
1.07146
1.0692
1.07074
1.07477
1.07775
1.07609
1.08268
1.08584
1.1675
1.16721
1.15202
1.12078
1.10533
1.09378
1.08698
1.08177
1.07652
1.08562
1.09333
1.07959
1.08863
1.08021
1.08806
1.07217
1.07238
1.06985
1.06412
1.06248
1.07091
1.06802
1.07443
1.07203
1.07065
1.071
1.07372
1.07301
1.08152
1.08448
1.17836
1.16985
1.14511
1.11856
1.1097
1.09966
1.08536
1.07936
1.07667
1.08604
1.09227
1.08125
1.09272
1.07606
1.07997
1.07455
1.07551
1.07229
1.06794
1.06331
1.07003
1.0676
1.08263
1.07097
1.08593
1.07912
1.08028
1.08024
1.08539
1.08962
1.19325
1.17623
1.15087
1.11935
1.1106
1.09748
1.08356
1.07415
1.08894
1.09044
1.09847
1.09236
1.093
1.07639
1.08406
1.07857
1.08631
1.06806
1.07803
1.06459
1.08193
1.07506
1.0823
1.07618
1.08995
1.08055
1.09517
1.0828
1.09419
1.09967
1.19722
1.17752
1.15244
1.11425
1.10698
1.11202
1.09584
1.08004
1.09589
1.09614
1.10316
1.09434
1.10423
1.08608
1.10333
1.08403
1.10121
1.07188
1.07945
1.07205
1.08284
1.08413
1.09377
1.09068
1.09285
1.08849
1.09584
1.08653
1.09845
1.11042
1.20563
1.16884
1.14459
1.11126
1.10469
1.10004
1.10338
1.10993
1.10145
1.10511
1.12348
1.11416
1.12939
1.11541
1.11244
1.08371
1.10057
1.08343
1.08704
1.0775
1.08829
1.08613
1.08821
1.09193
1.09658
1.08798
1.10252
1.08665
1.09803
1.11768
1.21684
1.16906
1.1343
1.11538
1.10347
1.1014
1.09561
1.10624
1.0923
1.11757
1.10595
1.11569
1.1282
1.12191
1.1059
1.09197
1.0847
1.07265
1.08347
1.08071
1.09126
1.08433
1.0925
1.08749
1.10341
1.08383
1.10012
1.07969
1.09323
1.12618
1.22393
1.17326
1.13355
1.099
1.1158
1.10096
1.10441
1.08614
1.09847
1.1045
1.10541
1.11367
1.11201
1.10735
1.10346
1.08658
1.09112
1.07757
1.07838
1.08008
1.07882
1.07534
1.08917
1.08507
1.10152
1.07393
1.08782
1.07118
1.08898
1.13695
1.22306
1.15859
1.12244
1.10534
1.10585
1.0925
1.11313
1.08977
1.09014
1.08271
1.04763
1.10442
1.10214
1.11374
1.10829
1.09171
1.09146
1.08315
1.0878
1.08147
1.08958
1.07186
1.0799
1.07527
1.07993
1.07066
1.07972
1.06507
1.07239
1.15065
1.23939
1.14937
1.11808
1.10189
1.10197
1.09955
1.09192
1.09302
1.10201
1.0867
1.07678
1.09289
1.09977
1.096
1.09491
1.09255
1.08827
1.08402
1.0931
1.08477
1.09436
1.08121
1.08154
1.06744
1.07176
1.0687
1.06606
1.06035
1.05984
1.17723
1.23784
1.1411
1.09039
1.08024
1.09679
1.09136
1.09419
1.08477
1.09683
1.08808
1.08236
1.082
1.0956
1.10084
1.09058
1.09121
1.08005
1.08223
1.08111
1.07406
1.08674
1.07561
1.0893
1.07535
1.07909
1.06346
1.07067
1.05034
1.06536
1.18555
1.21621
1.13248
1.08454
1.0962
1.09387
1.09488
1.08937
1.09045
1.08731
1.07803
1.08333
1.0776
1.07122
1.08864
1.09569
1.08486
1.07531
1.07683
1.07743
1.06655
1.0756
1.06412
1.07666
1.06756
1.07275
1.06195
1.07331
1.04296
1.05961
1.18928
1.19995
1.12194
1.06746
1.06865
1.08543
1.10326
1.09355
1.08801
1.10164
1.07529
1.06652
1.04731
1.06544
1.0582
1.05889
1.07467
1.06976
1.07046
1.07426
1.05753
1.05845
1.05787
1.06598
1.05938
1.06965
1.05749
1.06741
1.04882
1.0627
1.18745
1.18476
1.08914
1.04646
1.04149
1.06085
1.0889
1.1029
1.09203
1.1065
1.07457
1.0628
1.05357
1.06283
1.05052
1.05652
1.05675
1.04936
1.05294
1.055
1.05841
1.0546
1.05557
1.05682
1.05862
1.06376
1.05435
1.0593
1.04668
1.05563
1.17963
1.15824
1.07037
1.0213
1.02794
1.05036
1.08555
1.08367
1.09054
1.09475
1.07577
1.05324
1.06095
1.04636
1.06011
1.05726
1.06493
1.04369
1.06037
1.04571
1.04292
1.04922
1.04093
1.04322
1.04199
1.04941
1.05448
1.04786
1.04258
1.04434
1.16755
1.12183
1.16177
1.00614
1.01464
1.0268
1.06687
1.08692
1.07771
1.09692
1.07651
1.06246
1.04943
1.04025
1.05071
1.0427
1.0412
1.04037
1.05422
1.05609
1.04488
1.04446
1.0455
1.0417
1.03424
1.03839
1.03024
1.03971
1.02955
1.03983
1.1609
1.09467
0.991023
0.99571
1.00855
1.00765
1.06132
1.08031
1.0672
1.09037
1.05706
1.05856
1.0557
1.03341
1.04443
1.02852
1.0369
1.02714
1.04028
1.03351
1.03807
1.02814
1.0347
1.03158
1.03371
1.03326
1.02301
1.03596
1.02289
1.03487
1.15337
1.06851
0.976626
0.981054
0.96992
1.01556
1.04509
1.06639
1.05048
1.06593
1.06779
1.04635
1.05138
1.04631
1.05986
1.02712
1.02418
1.01729
1.03877
1.02665
1.03635
1.02009
1.03007
1.02064
1.03503
1.02123
1.02093
1.01993
1.02079
1.02733
1.14635
1.01532
0.931946
0.931066
0.957766
0.990862
1.02272
1.06795
1.06923
1.07399
1.0632
1.0619
1.05816
1.04391
1.04305
1.07603
1.02989
1.02162
1.03717
1.02722
1.03626
1.01663
1.03874
1.01593
1.03168
1.01956
1.02308
1.0166
1.01963
1.0184
1.10153
0.999956
0.913703
0.919613
0.944969
0.983478
1.00277
1.05283
1.0721
1.07647
1.06685
1.06802
1.05556
1.05546
1.05332
1.05424
1.04181
1.03394
1.04686
1.035
1.05147
1.02675
1.05492
1.01939
1.04084
1.02371
1.03262
1.01904
1.03364
1.02321
1.05772
1.00521
0.883016
1.07144
0.917292
0.976321
1.00323
1.04306
1.06935
1.07092
1.0718
1.05997
1.05439
1.04732
1.04709
1.04367
1.06788
1.0338
1.06387
1.06533
1.06512
1.05611
1.05865
1.03914
1.05924
1.03941
1.04035
1.02536
1.04407
1.02664
1.01506
0.973853
0.841435
0.921147
0.907669
0.971403
0.983598
1.05031
1.07167
1.08323
1.07644
1.06986
1.0496
1.05213
1.04435
1.04519
1.04343
1.04492
1.06623
1.06508
1.06454
1.04775
1.05414
1.04276
1.0563
1.03149
1.03807
1.0338
1.01669
1.01012
0.993812
0.931071
0.803954
0.843011
0.892465
0.968165
0.992608
1.05517
1.07917
1.09327
1.09694
1.09613
1.09055
1.08656
1.05199
1.04946
1.05159
1.0738
1.06304
1.06768
1.0753
1.05757
1.05581
1.04179
1.03369
1.04312
1.03839
1.02947
1.0186
1.01986
0.971956
0.880088
0.790664
0.823274
1.18111
0.966821
0.991311
1.05468
1.08778
1.09708
1.11523
1.11375
1.09918
1.11592
1.09901
1.08654
1.08164
1.06114
1.08889
1.05694
1.08635
1.07324
1.06124
1.07168
1.07631
1.05461
1.03523
1.03423
1.02874
1.02748
0.957947
0.854028
0.751523
0.804512
0.997751
0.958073
1.00112
1.05969
1.08725
1.11771
1.13316
1.11634
1.1203
1.1147
1.11265
1.10086
1.11057
1.09253
1.10244
1.10315
1.05908
1.07414
1.08705
1.09087
1.05666
1.08144
1.0549
1.05278
1.04007
1.0452
0.943571
0.8222
0.709499
0.77416
0.870511
0.979443
1.02017
1.07649
1.11546
1.13439
1.14053
1.12352
1.1382
1.13258
1.12477
1.12272
1.12128
1.12635
1.11499
1.13944
1.10625
1.12787
1.08005
1.08485
1.07172
1.11552
1.05888
1.05109
1.06787
1.03427
0.930623
0.764114
0.684362
0.740576
0.877602
1.2475
1.0795
1.10968
1.15587
1.15335
1.14963
1.1466
1.15837
1.15365
1.14761
1.16349
1.14207
1.1624
1.13192
1.15788
1.12785
1.14884
1.08716
1.13267
1.08682
1.09616
1.07499
1.09371
1.06803
1.0891
0.892151
0.750046
0.659133
0.732069
0.864396
1.06266
1.07597
1.126
1.17148
1.17254
1.20128
1.15955
1.17572
1.15503
1.1657
1.17601
1.17166
1.19937
1.16948
1.19701
1.16585
1.23168
1.10807
1.11418
1.09286
1.10425
1.09253
1.09981
1.09239
1.09175
0.855891
0.723416
0.642277
0.713768
0.87315
1.01825
1.12225
1.14107
1.18458
1.18041
1.21697
1.20855
1.22417
1.17601
1.17483
1.17853
1.17162
1.20272
1.17861
1.20254
1.1673
1.15661
1.18128
1.14618
1.13623
1.11094
1.10877
1.09879
1.0985
1.09174
0.825112
0.726002
0.649993
0.720052
0.886767
1.02804
1.26199
1.16023
1.21625
1.19299
1.22402
1.22492
1.24144
1.23051
1.2212
1.20381
1.20944
1.18412
1.19926
1.21922
1.1878
1.17697
1.17592
1.17029
1.14968
1.14666
1.12888
1.13096
1.13575
1.12628
0.794612
0.704802
0.645892
0.699152
0.903407
1.04824
1.17462
1.21215
1.22683
1.21374
1.24709
1.2161
1.24384
1.23395
1.23567
1.25478
1.25908
1.28165
1.23141
1.22432
1.24373
1.21434
1.21761
1.20976
1.18544
1.19365
1.16922
1.18511
1.16917
1.17597
0.785978
0.681834
0.658616
0.7111
0.908075
1.06101
1.17976
1.27316
1.26861
1.24215
1.28372
1.25783
1.26857
1.27252
1.25255
1.27841
1.26735
1.28456
1.29452
1.32258
1.26947
1.3428
1.31282
1.30522
1.27932
1.28568
1.26077
1.27427
1.24178
1.25632
0.775984
0.674817
0.685736
0.687878
0.906461
1.04389
1.18946
1.23475
1.29152
1.2664
1.29761
1.27767
1.28842
1.27804
1.28836
1.30557
1.29486
1.32031
1.31372
1.34786
1.28976
1.33989
1.32531
1.31687
1.29566
1.28655
1.27114
1.2757
1.26448
1.27153
0.719172
0.661855
0.681714
0.673266
0.886615
1.05036
1.19576
1.23081
1.31301
1.29571
1.3286
1.30488
1.32722
1.30289
1.32864
1.32322
1.32344
1.32953
1.33081
1.35869
1.31031
1.36299
1.33464
1.34156
1.32536
1.31648
1.29662
1.30939
1.28552
1.29741
0.70035
0.651606
0.654101
0.67636
0.870481
1.03111
1.18637
1.21927
1.3
1.36647
1.335
1.33055
1.35384
1.33461
1.36547
1.34251
1.3754
1.36751
1.37328
1.40475
1.33085
1.38372
1.3553
1.34481
1.34054
1.32995
1.31689
1.3273
1.31131
1.31096
0.689194
0.639558
0.635675
0.666533
0.87122
1.03108
1.16758
1.20789
1.28008
1.27711
1.36522
1.31905
1.34585
1.33172
1.36513
1.35228
1.38537
1.3832
1.41253
1.42977
1.35275
1.401
1.37903
1.35829
1.35551
1.35434
1.34411
1.34126
1.32621
1.3252
0.705596
0.641401
0.5975
0.670419
0.859808
1.01678
1.15143
1.24384
1.28178
1.29811
1.33867
1.38772
1.3215
1.3117
1.3459
1.35555
1.37187
1.37938
1.38782
1.43358
1.37818
1.44322
1.39717
1.37824
1.35969
1.35854
1.34543
1.34852
1.3233
1.32296
0.730845
0.659539
0.604775
0.631848
0.844813
0.978312
1.13841
1.23202
1.24987
1.29945
1.33311
1.33716
1.36291
1.39607
1.36573
1.32904
1.34022
1.35367
1.3537
1.38874
1.35645
1.39892
1.37251
1.39069
1.36153
1.36549
1.34046
1.35972
1.33625
1.32388
0.741602
0.684703
0.613963
0.608124
0.823589
0.977016
1.12565
1.23077
1.23782
1.29591
1.28685
1.29998
1.29664
1.32246
1.32617
1.38036
1.37034
1.37747
1.36844
1.4056
1.35252
1.36968
1.35332
1.3265
1.33939
1.32149
1.32335
1.32372
1.33044
1.32051
0.733948
0.700715
0.615277
0.602187
0.819078
0.959593
1.09395
1.21189
1.23378
1.29863
1.2975
1.32611
1.29067
1.31746
1.29975
1.33227
1.33227
1.33612
1.34282
1.35481
1.3375
1.35936
1.35798
1.33506
1.35621
1.3314
1.34263
1.32287
1.32248
1.29958
0.692254
0.718723
0.605401
0.599633
0.782073
0.950548
1.04702
1.20317
1.21448
1.28857
1.28811
1.31483
1.30063
1.32637
1.30428
1.31627
1.3151
1.33857
1.34294
1.34593
1.34608
1.39869
1.36198
1.34461
1.35504
1.3246
1.35194
1.3203
1.33968
1.32865
0.680607
0.714613
0.60831
0.598928
0.760351
0.937677
1.01088
1.19195
1.17496
1.278
1.23862
1.3102
1.28029
1.31249
1.29471
1.33104
1.33438
1.34381
1.34927
1.35321
1.35801
1.35084
1.35897
1.36161
1.36077
1.34677
1.34153
1.33141
1.33086
1.32105
0.637616
0.711845
0.633588
0.594628
0.748754
0.92353
1.00839
1.17821
1.15275
1.25415
1.20731
1.30082
1.24701
1.30217
1.2575
1.32233
1.32314
1.34828
1.33543
1.35607
1.35969
1.34802
1.36169
1.35177
1.35993
1.35728
1.35607
1.34425
1.35098
1.32483
0.643365
0.730717
0.618793
0.59139
0.716872
0.903364
0.979616
1.14058
1.13932
1.24171
1.19337
1.28066
1.21604
1.30608
1.25133
1.32075
1.30304
1.33428
1.32931
1.35122
1.36229
1.37754
1.36219
1.36424
1.36087
1.34038
1.34167
1.33416
1.34209
1.32769
0.668424
0.726208
0.633448
0.59188
0.705346
0.884502
0.972754
1.12075
1.12004
1.23477
1.18472
1.28459
1.21554
1.30076
1.26183
1.32956
1.29455
1.31508
1.32004
1.3426
1.35741
1.36821
1.35937
1.36163
1.35449
1.34155
1.33987
1.32962
1.32988
1.31558
0.706337
0.72251
0.635653
0.579984
0.68944
0.871186
0.967197
1.09568
1.10837
1.22528
1.17335
1.27057
1.19899
1.28994
1.23439
1.31293
1.25894
1.23907
1.2916
1.27048
1.32363
1.31672
1.3083
1.31267
1.34336
1.34102
1.32887
1.32353
1.32643
1.31568
0.713958
0.721678
0.631917
0.592419
0.654582
0.840184
0.953352
1.07394
1.10408
1.20142
1.1668
1.26481
1.21154
1.19192
1.26135
1.22961
1.27842
1.24825
1.29856
1.28044
1.31284
1.31622
1.33508
1.31569
1.30717
1.30834
1.31837
1.30013
1.31771
1.29355
0.725671
0.736766
0.635475
0.607669
0.639786
0.809105
0.924831
1.05434
1.10496
1.19304
1.17524
1.15139
1.22773
1.20517
1.26532
1.23402
1.28409
1.25313
1.29203
1.28767
1.31432
1.31936
1.32708
1.31525
1.30146
1.30822
1.32268
1.30752
1.31964
1.28688
0.74347
0.741382
0.627207
0.604225
0.630438
0.779351
0.912664
1.03811
1.08552
1.16767
1.20803
1.18206
1.24219
1.20995
1.26163
1.26226
1.28416
1.2767
1.29839
1.29791
1.31424
1.32743
1.32612
1.30852
1.31132
1.30718
1.31838
1.3015
1.31744
1.29557
0.81112
0.765592
0.649559
0.629507
0.59629
0.749203
0.894404
1.00099
1.08182
1.10353
1.1896
1.19036
1.23803
1.23062
1.26565
1.26666
1.28983
1.27877
1.29315
1.30193
1.31193
1.31171
1.32555
1.3132
1.31374
1.31272
1.31505
1.30176
1.30416
1.30346
0.838627
0.774047
0.653267
0.644718
0.574299
0.735276
0.879503
0.981642
1.05815
1.09173
1.17914
1.20631
1.24353
1.2472
1.26913
1.26936
1.28278
1.29389
1.2994
1.30544
1.31112
1.30998
1.32146
1.31664
1.31285
1.31465
1.31142
1.3102
1.30536
1.3025
0.812801
0.748199
0.624754
0.672473
0.55495
0.702522
0.846609
0.922704
1.04638
1.08503
1.15475
1.19177
1.23402
1.2385
1.26625
1.27102
1.2863
1.29481
1.29678
1.30516
1.3072
1.3042
1.31732
1.32378
1.31644
1.3243
1.31071
1.3164
1.30704
1.30681
0.812193
0.783492
0.575664
0.663327
0.529994
0.673715
0.820271
0.909607
1.03007
1.07648
1.15481
1.18071
1.22968
1.24145
1.26542
1.27141
1.28572
1.28808
1.29799
1.30355
1.30632
1.30632
1.31653
1.32081
1.31393
1.32461
1.31608
1.318
1.30865
1.31302
0.808536
0.798689
0.598801
0.657495
0.530758
0.629181
0.774034
0.871387
1.02438
1.06349
1.14332
1.16377
1.21727
1.2464
1.26337
1.27143
1.28555
1.29216
1.2992
1.30695
1.30905
1.30705
1.31388
1.31228
1.30959
1.31846
1.31453
1.31702
1.3114
1.31162
0.860008
0.820047
0.608987
0.666188
0.549459
0.595854
0.730319
0.868869
1.00093
1.04356
1.14723
1.15602
1.21074
1.24385
1.26185
1.27049
1.28686
1.29034
1.29857
1.30279
1.30545
1.30674
1.30391
1.30689
1.30729
1.31455
1.31133
1.31077
1.30849
1.30767
0.910528
0.850898
0.648742
0.665817
0.564575
0.583626
0.691407
0.840706
0.966443
1.03159
1.14723
1.15484
1.22044
1.24105
1.26096
1.26554
1.28724
1.29295
1.29747
1.30065
1.30091
1.30293
1.30488
1.30107
1.30381
1.31172
1.30838
1.30729
1.30599
1.30667
0.979061
0.858612
0.68833
0.653791
0.586571
0.575079
0.645908
0.801922
0.953576
1.01248
1.13532
1.14983
1.22021
1.23476
1.2573
1.26389
1.28127
1.29031
1.29163
1.29747
1.29755
1.30072
1.30142
1.30121
1.30046
1.30318
1.30349
1.30288
1.30424
1.30344
1.00496
0.944261
0.751984
0.620143
0.604512
0.547555
0.605208
0.77435
0.913386
0.988199
1.11463
1.13655
1.20995
1.23318
1.25129
1.26359
1.27766
1.2866
1.28915
1.29376
1.29432
1.29594
1.29848
1.30673
1.29775
1.30219
1.30078
1.30241
1.30244
1.30037
1.05794
0.948845
0.834642
0.6525
0.606208
0.581624
0.574382
0.708136
0.884392
0.966843
1.08995
1.12102
1.1972
1.22401
1.24712
1.25823
1.27358
1.28356
1.28659
1.2905
1.29219
1.29381
1.29505
1.29602
1.29437
1.29806
1.29905
1.29991
1.29923
1.29799
1.05847
0.982719
0.925265
0.704302
0.623268
0.58624
0.557859
0.689768
0.867473
0.931095
1.05907
1.0968
1.18784
1.21354
1.24009
1.25491
1.26843
1.27966
1.28259
1.28858
1.28796
1.28976
1.29244
1.29218
1.29469
1.29562
1.29395
1.29764
1.29658
1.29548
1.10109
1.01398
0.98277
0.743823
0.65879
0.599831
0.54771
0.666602
0.828453
0.909183
1.03388
1.07784
1.17291
1.19929
1.23401
1.24297
1.2631
1.27371
1.27696
1.28278
1.28178
1.28717
1.28732
1.2893
1.2935
1.29259
1.29232
1.29482
1.29309
1.29001
1.08885
1.0497
1.02926
0.834132
0.668901
0.650976
0.562024
0.629809
0.770459
0.891999
1.00194
1.05586
1.15393
1.19253
1.22496
1.23643
1.2561
1.26595
1.27362
1.27819
1.28026
1.28473
1.28579
1.28709
1.28956
1.29275
1.29066
1.29101
1.29147
1.28762
1.09772
1.01438
1.03758
0.896871
0.726895
0.661583
0.567323
0.611296
0.738316
0.852046
0.960768
1.00623
1.12405
1.13736
1.2019
1.22074
1.23849
1.25716
1.26505
1.27191
1.27658
1.28029
1.28272
1.28274
1.28621
1.28413
1.28692
1.28787
1.28762
1.28368
1.10996
1.06574
1.06827
0.989461
0.83894
0.697977
0.587717
0.574069
0.677529
0.815724
0.920639
0.97196
1.08659
1.12944
1.18971
1.20676
1.23583
1.24569
1.26218
1.26691
1.27047
1.27216
1.27415
1.27951
1.27886
1.27764
1.28142
1.27972
1.28203
1.27892
1.01939
0.985707
0.981776
0.936911
0.863125
0.732083
0.613972
0.570166
0.626686
0.754303
0.895432
0.995456
1.07709
1.13725
1.18019
1.21103
1.22992
1.24111
1.25192
1.25856
1.26275
1.26857
1.27022
1.27305
1.27366
1.27158
1.28915
1.27682
1.28017
1.27973
1.02653
1.00749
0.985402
0.98916
0.923519
0.820432
0.696276
0.621377
0.621804
0.705493
0.848679
0.930503
1.0367
1.1064
1.15416
1.19534
1.21498
1.23287
1.24255
1.25285
1.25746
1.26414
1.26526
1.26819
1.26823
1.26763
1.26718
1.27219
1.27621
1.27624
0.987891
1.00817
1.01041
0.99223
0.952115
0.893147
0.761846
0.665208
0.616166
0.658767
0.785411
0.898107
0.992696
1.07198
1.12992
1.17709
1.2064
1.22407
1.23606
1.24638
1.25099
1.2579
1.26026
1.26392
1.26528
1.26718
1.2679
1.26919
1.27018
1.2704
0.988583
0.998652
1.02664
0.989782
0.969084
0.933284
0.830983
0.725627
0.646985
0.649295
0.737312
0.861935
0.960271
1.03611
1.10516
1.15596
1.19109
1.21235
1.22974
1.23963
1.24645
1.2527
1.25638
1.26042
1.26208
1.26245
1.26441
1.2666
1.26638
1.26751
0.983856
0.998665
1.02454
0.99207
0.982336
0.957379
0.890017
0.77758
0.68558
0.651319
0.689976
0.805486
0.919707
1.00251
1.08533
1.13635
1.17264
1.20103
1.22057
1.23382
1.23994
1.24786
1.25242
1.25394
1.25921
1.26119
1.2636
1.26181
1.26373
1.26476
0.983296
0.993411
1.01112
1.02401
0.985346
0.973038
0.926026
0.818601
0.737573
0.679342
0.672434
0.768652
0.876213
0.967203
1.04085
1.10445
1.15456
1.18839
1.21179
1.2252
1.23503
1.24182
1.247
1.25242
1.2547
1.25772
1.26828
1.26199
1.26062
1.26166
0.984867
0.987512
0.99337
1.02893
0.989491
0.985784
0.958498
0.870784
0.785226
0.69694
0.677391
0.72058
0.828079
0.925781
1.01051
1.08061
1.13449
1.1752
1.19763
1.21683
1.22699
1.23626
1.24493
1.24624
1.25072
1.25245
1.25686
1.25736
1.25801
1.26161
0.989262
0.993715
0.994998
1.01757
0.995945
0.993094
0.968569
0.933688
0.836226
0.743179
0.691598
0.696031
0.786814
0.884557
0.97519
1.04473
1.10891
1.16205
1.18728
1.20869
1.22124
1.23143
1.23863
1.24233
1.24782
1.25152
1.25325
1.25424
1.25505
1.25405
0.989942
0.992399
0.990072
0.9917
1.00015
0.989296
0.986243
0.956357
0.902204
0.787539
0.716181
0.688096
0.749194
0.850177
0.94057
1.02094
1.08288
1.14356
1.17519
1.19793
1.2143
1.22607
1.2295
1.2369
1.24246
1.24486
1.24773
1.24898
1.24959
1.25069
0.98488
0.99038
0.989956
0.992329
0.991488
0.998361
0.988598
0.973917
0.937341
0.847322
0.759492
0.714392
0.723628
0.811323
0.905769
0.986422
1.05542
1.11521
1.15587
1.18683
1.20519
1.22067
1.22299
1.2336
1.23807
1.24136
1.24119
1.24533
1.24528
1.24293
0.986225
0.989506
0.992116
0.995095
0.991874
0.999602
0.991184
0.983735
0.957918
0.898969
0.809186
0.735117
0.71836
0.772868
0.875219
0.95141
1.0275
1.08996
1.14444
1.17537
1.1948
1.2129
1.22012
1.22955
1.23442
1.23581
1.23965
1.2422
1.24223
1.24537
0.987585
0.991641
0.992066
0.993621
0.993932
0.992084
0.990078
0.987375
0.967764
0.93131
0.864634
0.782539
0.730573
0.75007
0.844661
0.92543
0.999067
1.06563
1.11637
1.16189
1.18672
1.20568
1.21516
1.22379
1.23025
1.23159
1.23748
1.23955
1.23988
1.24398
0.988657
0.992411
0.993209
0.992549
0.991914
0.992603
0.99486
0.991331
0.981424
0.95551
0.903982
0.825568
0.755675
0.737723
0.793425
0.886371
0.965883
1.03725
1.09566
1.14623
1.17402
1.19502
1.21082
1.21933
1.22663
1.23122
1.23572
1.23569
1.23839
1.23918
0.98956
0.992868
0.993989
0.993605
0.992134
0.992835
0.993471
0.992176
0.987177
0.971376
0.939169
0.865368
0.788431
0.75074
0.765247
0.851717
0.94091
1.01587
1.07531
1.12624
1.16262
1.19029
1.20594
1.21377
1.22272
1.22655
1.23227
1.23296
1.23499
1.23727
0.990307
0.993465
0.994782
0.993825
0.994502
0.993282
0.992814
0.99298
0.990199
0.984478
0.957392
0.900593
0.826411
0.771751
0.761032
0.830266
0.904925
0.981317
1.04975
1.10334
1.1466
1.1709
1.19676
1.20942
1.21634
1.22125
1.2288
1.23549
1.23463
1.23325
0.991666
0.993676
0.995027
0.993684
0.993348
0.994085
0.993712
0.99757
0.993612
0.992232
0.973568
0.929235
0.860633
0.789399
0.764707
0.805708
0.883539
0.952272
1.02098
1.08047
1.12706
1.16235
1.18495
1.19595
1.20787
1.21093
1.22231
1.23128
1.23035
1.22635
0.990994
0.992882
0.99548
0.994622
0.992933
0.993433
0.992001
0.994991
1.00015
1.03059
1.00453
0.937172
0.890509
0.825831
0.779389
0.795005
0.885994
0.939182
1.00584
1.05971
1.11414
1.15179
1.18212
1.19932
1.21439
1.21704
1.22175
1.22207
1.21825
1.22071
0.990596
0.993455
0.994393
0.992911
0.992864
0.993215
0.99124
0.99293
1.00415
1.06459
1.06546
0.981242
0.975097
0.853188
0.821069
0.792933
0.869205
0.907724
0.986311
1.02537
1.11904
1.15908
1.21712
1.22568
1.24279
1.24116
1.23765
1.21679
1.21746
1.21512
0.990304
0.993559
1.00004
0.997449
1.00268
1.01043
1.00693
0.995614
0.998917
1.00694
1.02964
0.978966
0.977524
0.937017
0.834745
0.796943
0.835147
0.875934
0.964441
1.00861
1.09016
1.12717
1.18519
1.20625
1.19261
1.20626
1.22361
1.19101
1.20107
1.21291
0.990517
1.00314
1.00535
1.01529
1.029
1.01313
1.03596
1.0062
1.03187
1.0002
1.01896
0.970653
0.978293
0.924819
0.909342
0.831166
0.82377
0.860463
0.941839
1.00055
1.06069
1.10805
1.1461
1.17113
1.1942
1.19342
1.20384
1.21524
1.1968
1.21084
0.992587
1.0148
1.01838
1.01684
1.03585
1.02198
1.0501
1.01508
1.04702
1.01328
1.01496
0.98629
1.00078
0.965986
0.935053
0.893989
0.837051
0.845168
0.894438
0.967545
1.02704
1.08188
1.12034
1.15986
1.18222
1.1895
1.20039