/*--------------------------------*- C++ -*----------------------------------*\
| =========                 |                                                 |
| \\      /  F ield         | OpenFOAM: The Open Source CFD Toolbox           |
|  \\    /   O peration     | Version:  2312                                  |
|   \\  /    A nd           | Website:  www.openfoam.com                      |
|    \\/     M anipulation  |                                                 |
\*---------------------------------------------------------------------------*/
FoamFile
{
    version     2.0;
    format      ascii;
    arch        "LSB;label=32;scalar=64";
    class       volSymmTensorField;
    location    "20000";
    object      turbulenceProperties:R;
}
// * * * * * * * * * * * * * * * * * * * * * * * * * * * * * * * * * * * * * //

dimensions      [0 2 -2 0 0 0 0];

internalField   nonuniform List<symmTensor> 
29400
(
(0.00515463 3.77628e-21 -6.39852e-05 0.00515949 -1.1199e-20 0.0051598)
(0.00955572 -3.62077e-20 -0.000217047 0.00959193 -1.61925e-20 0.00957175)
(0.0164595 -1.55072e-19 -0.00056335 0.0165454 9.97816e-21 0.0164813)
(0.0242358 1.1628e-22 -0.00107353 0.0243652 -0 0.0242628)
(0.0322986 -1.58023e-18 -0.00171052 0.0324695 9.24808e-20 0.0323281)
(0.0397055 1.05193e-19 -0.00238601 0.0399116 5.791e-20 0.0397355)
(0.046216 3.14158e-19 -0.00304634 0.046452 8.04129e-20 0.0462448)
(0.0517711 -4.57024e-19 -0.00365746 0.0520323 6.43337e-20 0.0517976)
(0.0564338 1.32614e-18 -0.00420382 0.0567165 4.33526e-20 0.0564576)
(0.0603208 -5.32368e-20 -0.00468244 0.0606223 3.75225e-20 0.0603419)
(0.0635525 -1.05758e-19 -0.00509629 0.0638704 1.01663e-19 0.0635715)
(0.0662403 3.27333e-18 -0.00545138 0.0665726 1.64412e-19 0.0662571)
(0.0684808 2.09478e-18 -0.00575478 0.0688257 4.60096e-20 0.0684955)
(0.0703558 -6.60122e-19 -0.0060135 0.0707116 7.83276e-20 0.0703686)
(0.0719322 -1.26932e-19 -0.006234 0.0722969 1.1179e-19 0.071943)
(0.0732643 4.38918e-18 -0.00642207 0.0736364 -2.65922e-20 0.0732733)
(0.0743964 -2.36291e-18 -0.0065826 0.0747741 6.46115e-20 0.0744035)
(0.0753642 1.05186e-17 -0.00671974 0.0757463 -7.64032e-20 0.0753696)
(0.0761957 -2.2164e-18 -0.0068369 0.0765809 8.50058e-20 0.0761994)
(0.0769129 1.06587e-17 -0.00693686 0.0773001 -3.78734e-19 0.076915)
(0.0775337 -8.21695e-18 -0.00702194 0.0779221 6.4669e-20 0.0775342)
(0.0780728 1.57788e-18 -0.00709424 0.0784625 -5.18416e-20 0.0780728)
(0.078543 -2.44804e-18 -0.00715548 0.078934 1.17956e-19 0.078543)
(0.0789541 2.02004e-18 -0.00720709 0.0793459 7.95663e-20 0.0789541)
(0.0793159 -3.73142e-18 -0.0072504 0.0797081 9.99753e-20 0.0793159)
(0.0796339 -8.48107e-19 -0.00728663 0.0800262 6.37232e-20 0.0796339)
(0.0799153 6.48762e-18 -0.00731684 0.0803074 -8.21727e-20 0.0799153)
(0.0801661 5.74704e-18 -0.00734238 0.0805578 1.68803e-19 0.0801661)
(0.0803876 4.58341e-18 -0.00736376 0.0807789 -1.49082e-20 0.0803876)
(0.0805765 1.77865e-18 -0.00739741 0.0809756 -5.43056e-21 0.0805859)
(0.0718506 2.98181e-20 -0.00200984 0.0725837 -8.58312e-19 0.0748497)
(0.0649607 6.89401e-18 -0.00436134 0.0680982 -7.20703e-19 0.0679091)
(0.0667859 -5.95194e-18 -0.00725827 0.0711723 6.79219e-19 0.0694998)
(0.0727212 3.58593e-20 -0.0102119 0.0775471 4.47187e-19 0.0753518)
(0.0785281 1.61475e-18 -0.0131111 0.0836304 6.13578e-19 0.0810795)
(0.0836806 6.3027e-19 -0.0158269 0.0889705 5.18084e-19 0.0861309)
(0.0882216 -7.04326e-18 -0.0183079 0.0936637 3.41012e-19 0.0905567)
(0.0923489 -1.35279e-18 -0.0205724 0.0979397 -5.50814e-19 0.0945674)
(0.0962143 -9.24489e-18 -0.0226522 0.101967 6.4507e-19 0.0983227)
(0.0999015 4.11173e-18 -0.0245747 0.105835 7.53198e-19 0.101909)
(0.10345 -4.18213e-18 -0.0263613 0.109582 7.31674e-19 0.105368)
(0.106879 -7.30834e-18 -0.0280285 0.113219 2.22226e-18 0.108716)
(0.110194 3.42471e-19 -0.0295881 0.116746 -2.87125e-20 0.111958)
(0.113393 1.04885e-17 -0.0310492 0.120153 5.57691e-19 0.115091)
(0.116471 -5.38632e-18 -0.0324181 0.12343 -2.302e-19 0.118111)
(0.119423 -1.42684e-17 -0.0337001 0.126565 1.42128e-18 0.121008)
(0.122241 -8.32581e-18 -0.0348989 0.12955 1.03489e-18 0.123777)
(0.12492 -5.7194e-17 -0.036018 0.132377 -3.68256e-18 0.126411)
(0.127455 1.0093e-17 -0.0370605 0.135041 -3.20453e-19 0.128904)
(0.129844 -2.55266e-17 -0.0380291 0.13754 -9.29703e-19 0.131254)
(0.132085 1.20054e-17 -0.0389268 0.139875 3.14648e-18 0.133459)
(0.13418 -2.92779e-17 -0.0397576 0.14205 1.22639e-18 0.135522)
(0.136133 -4.92269e-18 -0.0405243 0.14407 5.58216e-19 0.137445)
(0.137947 3.1874e-17 -0.0412315 0.145941 2.20969e-18 0.139233)
(0.139627 -1.23605e-17 -0.0418825 0.147671 8.17397e-19 0.140892)
(0.141177 1.97623e-17 -0.0424819 0.149271 -3.94292e-19 0.142431)
(0.142605 4.81468e-17 -0.0430332 0.150748 -4.21405e-19 0.143855)
(0.143927 -2.70924e-17 -0.0435419 0.152111 -8.67285e-19 0.145173)
(0.14514 -1.81165e-17 -0.0440086 0.153358 -4.09914e-18 0.146384)
(0.145931 2.13034e-18 -0.0444432 0.154681 -7.33303e-19 0.1477)
(0.270365 8.60202e-20 -7.8083e-05 0.279365 -7.42239e-18 0.316718)
(0.240057 1.44032e-17 -0.00949105 0.289436 -1.48858e-17 0.284915)
(0.242578 -1.44529e-18 -0.0198807 0.316019 5.22859e-18 0.285473)
(0.259078 1.49218e-17 -0.0304061 0.339624 8.78416e-18 0.300632)
(0.274741 -1.51256e-17 -0.0402077 0.358359 2.82961e-18 0.314684)
(0.288112 -5.65502e-17 -0.0492856 0.373066 5.20918e-18 0.32607)
(0.299663 -6.28285e-17 -0.0577936 0.385366 -9.70429e-18 0.3355)
(0.310087 -3.1792e-18 -0.0658244 0.396517 -5.86547e-18 0.343862)
(0.319855 -1.34496e-16 -0.073437 0.407249 4.75878e-18 0.351722)
(0.329222 -3.81933e-17 -0.080669 0.417893 3.67322e-18 0.359373)
(0.338318 7.17311e-18 -0.087541 0.428543 6.68967e-18 0.366946)
(0.347203 -2.02508e-16 -0.0940709 0.439177 -2.89417e-17 0.374486)
(0.355893 -1.93626e-16 -0.100267 0.449709 -4.84311e-18 0.381991)
(0.364379 -1.116e-16 -0.106132 0.460035 -2.75464e-18 0.389432)
(0.37264 6.52759e-17 -0.111677 0.470055 -2.25756e-18 0.39677)
(0.380647 -8.93445e-18 -0.116907 0.47968 9.2808e-18 0.403958)
(0.388365 -9.98748e-17 -0.121825 0.488841 1.45852e-17 0.41095)
(0.395766 4.76529e-17 -0.126441 0.497495 -2.67372e-17 0.417703)
(0.402823 -4.01457e-18 -0.130751 0.505613 1.40545e-17 0.42418)
(0.409517 8.98182e-17 -0.134773 0.513184 -9.22047e-18 0.430353)
(0.415833 4.31904e-17 -0.138514 0.520214 3.53358e-17 0.436203)
(0.421766 -1.14158e-16 -0.14199 0.526717 -5.17444e-17 0.44172)
(0.427315 -1.45958e-16 -0.145208 0.532717 4.61617e-18 0.446902)
(0.432485 -1.72269e-16 -0.148183 0.538241 4.76898e-18 0.451751)
(0.437285 -1.98319e-16 -0.150932 0.543321 -5.25505e-17 0.456278)
(0.441724 2.52629e-17 -0.153465 0.547989 3.43616e-17 0.460495)
(0.445816 -5.66615e-17 -0.155797 0.552276 -2.15395e-17 0.464417)
(0.449576 1.36804e-18 -0.15795 0.55622 -3.53662e-18 0.468069)
(0.453002 -4.10966e-17 -0.159911 0.559829 -4.74904e-17 0.471443)
(0.454413 5.52044e-18 -0.161729 0.563968 1.99247e-17 0.475673)
(0.38666 3.81893e-18 0.00287222 0.417508 -1.63244e-17 0.55272)
(0.322534 1.02447e-16 -0.000641385 0.50609 -5.29824e-17 0.484116)
(0.321449 -8.65887e-17 -0.00912918 0.595727 4.12695e-17 0.477432)
(0.348601 3.50009e-17 -0.0212425 0.648224 3.39678e-17 0.499661)
(0.375381 -1.32278e-16 -0.0313908 0.685326 -8.76795e-18 0.520765)
(0.399116 -2.18707e-16 -0.0403743 0.713677 5.13866e-17 0.53779)
(0.420057 5.62418e-17 -0.0488466 0.737523 -1.5863e-17 0.551766)
(0.438892 1.8851e-16 -0.0570261 0.759226 2.09086e-18 0.563844)
(0.45612 2.39501e-16 -0.065019 0.779994 2.88239e-17 0.574794)
(0.472097 -2.49156e-16 -0.0728617 0.800349 -2.48792e-17 0.585048)
(0.487076 3.46111e-16 -0.0805209 0.82041 1.0816e-17 0.594873)
(0.501242 3.37534e-17 -0.0879956 0.840095 -2.00532e-17 0.604427)
(0.514731 -3.06537e-19 -0.0952153 0.859227 5.81736e-17 0.613799)
(0.527633 2.48777e-16 -0.102174 0.877612 -7.08697e-17 0.623034)
(0.539991 1.67769e-16 -0.108795 0.895064 4.3905e-18 0.632125)
(0.551832 5.84218e-17 -0.115066 0.911457 3.07478e-17 0.64105)
(0.563151 2.11371e-16 -0.120958 0.926704 6.03616e-18 0.649766)
(0.573939 1.30404e-17 -0.126476 0.940775 -1.64745e-16 0.658225)
(0.584173 -4.32941e-17 -0.13161 0.953662 -8.77894e-17 0.666365)
(0.593849 1.24412e-16 -0.136349 0.965415 -3.15342e-17 0.674155)
(0.602954 4.38203e-17 -0.140715 0.976086 7.14225e-17 0.68156)
(0.611487 4.31974e-17 -0.144725 0.985751 -1.70226e-17 0.688562)
(0.619441 -4.05281e-18 -0.148426 0.994477 1.02691e-17 0.695142)
(0.626838 -3.43374e-18 -0.1518 1.00236 -8.5097e-17 0.701306)
(0.633695 -2.70176e-17 -0.154887 1.00946 -1.04667e-17 0.707061)
(0.640025 5.41513e-17 -0.157705 1.01588 4.93833e-18 0.712418)
(0.645851 2.30389e-16 -0.160274 1.02167 2.99747e-17 0.7174)
(0.651198 2.79628e-16 -0.162489 1.02691 2.44251e-16 0.722033)
(0.656043 -3.20947e-16 -0.164296 1.03161 -1.59566e-16 0.726305)
(0.659244 1.85886e-16 -0.165999 1.03607 1.32317e-16 0.731507)
(0.406825 4.57914e-18 0.015755 0.47106 -5.7331e-18 0.745573)
(0.313733 4.08614e-16 0.00526937 0.662559 1.1886e-16 0.623754)
(0.364496 8.49791e-17 -0.00100137 0.779148 1.02042e-17 0.603022)
(0.404584 1.52325e-16 -0.00100992 0.855066 1.90406e-17 0.63305)
(0.436418 1.24201e-16 -0.00119131 0.914432 -1.45364e-17 0.66131)
(0.463551 -1.69433e-16 -0.00130454 0.963299 7.67084e-17 0.68425)
(0.487851 6.20267e-17 -0.00162585 1.00596 -4.61721e-17 0.70325)
(0.510524 2.5138e-16 -0.00567948 1.04482 1.66731e-17 0.719632)
(0.532151 2.9893e-16 -0.0101169 1.08122 3.63441e-17 0.734326)
(0.552965 -1.80549e-16 -0.014882 1.1158 -2.40082e-17 0.747956)
(0.573024 1.5874e-16 -0.0198878 1.14883 -6.12875e-19 0.760906)
(0.592302 -3.62713e-17 -0.0250275 1.1804 7.76567e-17 0.773401)
(0.610736 1.01331e-17 -0.0302465 1.21049 3.34713e-17 0.785558)
(0.628257 -2.90933e-17 -0.0354478 1.23903 -2.08634e-16 0.797409)
(0.644801 4.58568e-16 -0.0405962 1.26597 3.53819e-17 0.80893)
(0.660323 3.31728e-17 -0.0456553 1.29123 -3.909e-17 0.820067)
(0.674804 5.01864e-17 -0.0505847 1.31479 5.9095e-17 0.830763)
(0.688246 -4.59996e-16 -0.0553356 1.33664 -3.91565e-17 0.840956)
(0.700669 2.43606e-16 -0.0599275 1.35679 -2.31012e-16 0.850597)
(0.712107 2.39179e-17 -0.0643329 1.37532 -3.96468e-17 0.859651)
(0.722611 -1.64564e-16 -0.0685384 1.39228 5.64155e-17 0.868105)
(0.73223 5.20827e-16 -0.0725496 1.40777 -1.5651e-17 0.87596)
(0.74101 3.95025e-16 -0.0763124 1.42187 -1.92578e-17 0.88322)
(0.749026 -1.93831e-16 -0.0798876 1.43469 -1.92463e-17 0.88992)
(0.756325 3.25426e-16 -0.0832413 1.44634 1.30146e-16 0.896076)
(0.762962 9.36e-17 -0.086397 1.4569 1.74152e-16 0.901722)
(0.768988 -2.73909e-16 -0.0893208 1.46648 1.28566e-16 0.906893)
(0.774456 5.31878e-16 -0.0920211 1.47518 1.5199e-17 0.911625)
(0.779379 1.38168e-16 -0.0945292 1.48306 -1.32359e-17 0.915959)
(0.782873 6.94446e-16 -0.0970051 1.49049 8.13648e-17 0.920735)
(0.408459 7.20342e-18 0.0199991 0.497105 -4.344e-19 0.873872)
(0.34861 1.48066e-16 0.0130923 0.73206 -1.445e-16 0.700364)
(0.411532 -6.9707e-16 0.0105655 0.880177 -2.96821e-17 0.685907)
(0.461125 1.45347e-17 0.0096858 0.975348 -7.76275e-17 0.724647)
(0.501072 4.07012e-16 0.0056248 1.05084 -3.96263e-17 0.761432)
(0.535882 4.95346e-16 0.00182141 1.11461 -2.76777e-17 0.792485)
(0.567595 4.22054e-16 -0.00204134 1.17144 3.36982e-17 0.819181)
(0.597398 6.06263e-18 -0.00210032 1.22386 8.10512e-17 0.842761)
(0.625867 7.52636e-17 -0.00211474 1.27325 2.77043e-17 0.864164)
(0.653229 5.27436e-16 -0.00209968 1.32026 -5.28419e-17 0.884053)
(0.679522 -2.16048e-16 -0.00206695 1.36517 -1.33724e-17 0.902853)
(0.704687 -2.29625e-16 -0.00202565 1.40804 3.22457e-17 0.920816)
(0.72864 3.31911e-16 -0.00198138 1.44881 -8.89758e-17 0.938075)
(0.751268 1.09429e-16 -0.00193754 1.48736 -4.59575e-18 0.954648)
(0.772494 -1.63804e-17 -0.00189644 1.5236 -9.13924e-17 0.970511)
(0.792263 -5.0389e-16 -0.00185903 1.55743 -4.14201e-17 0.985611)
(0.810554 -9.99702e-17 -0.00182591 1.5888 6.81608e-17 0.999882)
(0.827393 8.26039e-18 -0.00179993 1.61775 2.09223e-17 1.01328)
(0.842807 -6.3819e-16 -0.00178112 1.64431 -1.64998e-16 1.02574)
(0.856875 2.34682e-16 -0.00176427 1.66858 -3.94669e-17 1.03729)
(0.869652 5.80285e-16 -0.00174896 1.69065 1.437e-16 1.04793)
(0.881232 -2.42972e-16 -0.0017372 1.71068 1.53257e-16 1.0577)
(0.891707 -2.27719e-16 -0.00172825 1.72882 -2.29665e-17 1.06663)
(0.90117 -2.03833e-16 -0.0017215 1.74521 6.88285e-17 1.07476)
(0.909706 7.93216e-17 -0.00171599 1.76 4.99244e-16 1.08215)
(0.917397 1.69812e-16 -0.00171042 1.77335 1.26744e-16 1.08885)
(0.924333 -7.30832e-16 -0.00170242 1.7854 7.8794e-17 1.09493)
(0.930588 1.07096e-16 -0.00168848 1.79626 -1.77095e-17 1.10043)
(0.936208 5.40342e-16 -0.00168241 1.80607 1.53438e-16 1.10542)
(0.940614 1.48895e-16 -0.00165469 1.81497 2.2434e-16 1.1105)
(0.430502 1.4294e-17 0.0188926 0.523789 6.90299e-17 0.921223)
(0.370346 -5.34563e-16 0.0169453 0.775945 6.11308e-17 0.750678)
(0.439565 2.90478e-18 0.0174848 0.940714 2.30034e-17 0.737341)
(0.496401 6.90483e-17 0.0204181 1.05008 6.42186e-17 0.783275)
(0.544238 -1.51953e-16 0.0236379 1.14075 -1.36569e-17 0.829154)
(0.587144 -3.18016e-16 0.026869 1.2201 8.59667e-17 0.869758)
(0.626891 1.99891e-16 0.029754 1.29237 -1.24337e-17 0.90578)
(0.664534 2.48265e-18 0.032193 1.35974 3.2339e-17 0.938187)
(0.700527 -2.5685e-16 0.0340872 1.42337 5.29426e-17 0.967841)
(0.735057 2.97729e-16 0.0354401 1.48389 6.98801e-18 0.99537)
(0.768153 -4.34281e-16 0.0362974 1.54157 -2.43214e-17 1.02124)
(0.799727 -3.8312e-16 0.0367407 1.59644 -5.87734e-17 1.04574)
(0.829687 -1.49439e-16 0.0368527 1.64844 4.13773e-17 1.06904)
(0.857922 -6.53945e-16 0.0367177 1.69746 -9.32304e-17 1.0912)
(0.884338 2.61354e-16 0.0363916 1.74337 -9.67149e-17 1.11221)
(0.908885 -2.3763e-16 0.0359383 1.78611 3.21252e-17 1.13203)
(0.931545 3.31077e-16 0.0353975 1.82562 2.0697e-17 1.15061)
(0.952349 6.25312e-16 0.0347961 1.86196 1.70148e-17 1.16793)
(0.971328 -5.40091e-16 0.0335523 1.89522 -1.51382e-17 1.18395)
(0.988547 -4.81465e-16 0.0310056 1.92556 -4.81388e-16 1.19867)
(1.00416 6.01744e-16 0.0284703 1.95308 3.39552e-16 1.21216)
(1.01828 2.53296e-16 0.0260187 1.97796 1.33295e-16 1.22447)
(1.03101 -7.69686e-18 0.0236032 2.00041 8.54155e-17 1.23565)
(1.0425 2.80192e-16 0.0213043 2.02065 -5.44396e-18 1.24581)
(1.05283 -5.90275e-17 0.0191027 2.03886 3.18025e-16 1.25499)
(1.06214 1.60363e-16 0.0170057 2.05524 1.67087e-16 1.2633)
(1.07052 -4.17517e-16 0.0150205 2.06996 -4.36588e-16 1.27079)
(1.07806 -6.06021e-16 0.013158 2.0832 -3.53261e-17 1.27754)
(1.08483 5.97633e-16 0.0114464 2.09512 -7.30035e-17 1.28363)
(1.09041 8.63756e-16 0.00984948 2.10576 -1.18651e-17 1.28961)
(0.441457 9.41949e-18 0.0181077 0.538519 4.9494e-17 0.946656)
(0.380679 2.03197e-18 0.0189515 0.797537 1.95069e-16 0.777652)
(0.452417 -3.94121e-16 0.0215023 0.968998 2.7431e-16 0.763684)
(0.514557 3.19763e-16 0.0267503 1.08881 -2.01093e-17 0.815111)
(0.569392 5.13163e-16 0.032553 1.19318 6.74342e-17 0.869567)
(0.62008 -1.06331e-15 0.0385064 1.28759 1.4213e-16 0.919905)
(0.66781 8.88926e-17 0.0441459 1.37517 -6.73552e-18 0.965842)
(0.713332 9.82973e-16 0.0492518 1.45748 -9.06264e-18 1.00781)
(0.756948 -3.34282e-16 0.053683 1.53545 1.57548e-17 1.04641)
(0.798748 -7.6783e-16 0.0573879 1.60955 -3.30773e-17 1.08222)
(0.83872 -2.93031e-17 0.0604042 1.68001 -9.22125e-17 1.11573)
(0.876769 -5.04932e-16 0.062825 1.74687 9.81503e-17 1.14727)
(0.912788 -1.17686e-16 0.064749 1.81007 5.04036e-17 1.17704)
(0.946663 1.81679e-16 0.0662821 1.86951 -1.15082e-16 1.20517)
(0.978312 5.60376e-16 0.0675175 1.92508 -4.45373e-17 1.23167)
(1.00769 4.02108e-16 0.0685166 1.97672 1.4524e-17 1.25654)
(1.03479 -4.83121e-16 0.0693451 2.02442 8.14145e-17 1.27975)
(1.05964 -2.67945e-16 0.0700332 2.06824 -9.1142e-17 1.3013)
(1.08232 -2.45719e-16 0.0706106 2.10827 -8.7395e-18 1.32121)
(1.10294 3.40954e-16 0.0710864 2.1447 -2.74249e-16 1.3395)
(1.12163 -1.08e-16 0.0714858 2.17774 2.1212e-16 1.3562)
(1.13851 -3.06089e-16 0.0718132 2.20763 8.60874e-17 1.3714)
(1.15376 6.46723e-16 0.0720802 2.2346 5.36545e-16 1.38521)
(1.16748 4.57445e-16 0.0722977 2.25889 -2.38881e-16 1.3977)
(1.17984 1.09752e-15 0.0724636 2.28076 2.99524e-16 1.409)
(1.19095 -2.1801e-17 0.0725923 2.30042 3.68738e-17 1.41919)
(1.20096 -1.18067e-15 0.0726866 2.3181 -6.62052e-16 1.42838)
(1.20995 -7.55848e-16 0.0727585 2.334 8.58386e-18 1.43665)
(1.21803 5.21102e-16 0.0728039 2.3483 -4.12997e-17 1.44411)
(1.22485 1.43274e-16 0.0730527 2.36095 -3.42108e-17 1.45132)
(0.443498 1.55555e-17 0.0166784 0.542813 6.22276e-17 0.953539)
(0.382789 -2.6409e-16 0.0197901 0.800935 2.74217e-16 0.788393)
(0.454885 1.06353e-16 0.0234724 0.975158 -7.0205e-17 0.772997)
(0.52095 -2.87074e-16 0.0301694 1.1029 -7.04969e-17 0.828729)
(0.581776 -3.10897e-16 0.0377924 1.21915 -2.56147e-17 0.89085)
(0.639482 5.37924e-16 0.0458101 1.32732 -1.1991e-16 0.95026)
(0.694624 5.55174e-16 0.0536171 1.42924 -1.04017e-17 1.00561)
(0.747579 4.60236e-16 0.0609165 1.52578 8.93119e-18 1.05676)
(0.798434 -3.43694e-16 0.0674699 1.61746 2.76755e-17 1.10404)
(0.847178 3.92788e-16 0.0731757 1.70459 -5.6296e-18 1.14795)
(0.893725 6.28826e-16 0.0780517 1.78731 -1.20154e-16 1.18892)
(0.937972 -6.95652e-17 0.082183 1.86567 3.26052e-16 1.22733)
(0.9798 -4.22243e-16 0.085685 1.93961 1.052e-16 1.26345)
(1.01909 -1.23811e-15 0.0886844 2.00903 7.8106e-17 1.29741)
(1.05577 1.33158e-16 0.0912924 2.07385 -6.13375e-18 1.32929)
(1.08979 -7.62755e-17 0.0935845 2.13404 -4.04483e-18 1.35911)
(1.12118 4.78056e-17 0.0956263 2.18961 3.0592e-17 1.38687)
(1.14997 3.52137e-17 0.0974644 2.24065 -1.14917e-16 1.4126)
(1.17626 -9.33313e-16 0.099126 2.28731 6.99178e-17 1.43631)
(1.20018 -4.21615e-16 0.100637 2.32978 -2.27721e-16 1.45808)
(1.22187 2.86644e-16 0.102017 2.36832 4.62259e-16 1.47797)
(1.24149 -4.09701e-16 0.103271 2.40319 -1.33969e-16 1.4961)
(1.2592 -6.74329e-16 0.104417 2.43467 3.42368e-16 1.51255)
(1.27517 1.45028e-18 0.10545 2.46305 -2.14835e-17 1.52746)
(1.28955 -6.51848e-16 0.106378 2.48861 2.45623e-16 1.54094)
(1.3025 -1.20522e-15 0.107219 2.51162 -9.19566e-18 1.55312)
(1.31416 -4.55305e-16 0.107974 2.53231 -2.53766e-16 1.56409)
(1.32466 9.64744e-16 0.108658 2.55092 5.20933e-17 1.57398)
(1.33408 6.28244e-16 0.109289 2.56768 -3.23942e-17 1.58292)
(1.34221 2.31149e-16 0.110187 2.58245 1.04749e-17 1.59145)
(0.43976 2.66036e-17 0.0151245 0.539216 7.00553e-17 0.94694)
(0.379577 -3.31498e-16 0.0197676 0.793065 2.03585e-16 0.78822)
(0.451364 -3.17069e-16 0.024151 0.96861 7.40095e-17 0.772366)
(0.520549 6.4332e-16 0.0316883 1.10283 -1.70934e-16 0.831781)
(0.586436 -1.67908e-16 0.0405094 1.22927 -7.39078e-17 0.900536)
(0.650236 -1.75882e-16 0.0499921 1.3495 -2.27295e-17 0.967983)
(0.711908 -3.59975e-17 0.0594357 1.46421 3.90434e-17 1.0318)
(0.771499 -2.00507e-16 0.0684463 1.57356 9.46189e-17 1.09132)
(0.828875 -4.60644e-17 0.0766915 1.67768 -1.06019e-16 1.14661)
(0.883893 5.25446e-16 0.0840279 1.77668 1.43419e-16 1.19799)
(0.93642 1.09252e-15 0.0904339 1.87062 -1.36134e-16 1.2459)
(0.986308 8.88773e-16 0.0959902 1.95949 7.90477e-17 1.29072)
(1.03343 -5.2143e-18 0.100821 2.04325 1.98876e-17 1.33274)
(1.07767 5.02768e-16 0.105061 2.12182 1.09254e-16 1.37215)
(1.11895 3.84985e-16 0.108816 2.19514 8.06858e-17 1.40907)
(1.15724 6.36793e-17 0.112202 2.26319 -2.73087e-17 1.44353)
(1.19257 3.69485e-16 0.115285 2.32601 -6.19618e-17 1.47558)
(1.225 -6.48218e-16 0.118108 2.38371 1.53812e-17 1.50525)
(1.25463 -6.5671e-16 0.120706 2.43649 8.26466e-17 1.53261)
(1.2816 -1.39084e-17 0.123122 2.48456 5.03359e-17 1.55772)
(1.30608 -3.76423e-16 0.125353 2.52821 3.15451e-16 1.58069)
(1.32825 5.48437e-16 0.127415 2.56774 -2.97836e-18 1.60162)
(1.34829 -5.09819e-16 0.129317 2.60347 3.46277e-16 1.62064)
(1.36638 1.54849e-18 0.131068 2.63572 -6.39047e-17 1.6379)
(1.38269 -7.68497e-16 0.132681 2.66479 1.16909e-16 1.65352)
(1.39739 3.68176e-17 0.134155 2.69097 1.00818e-17 1.66764)
(1.41064 -2.98901e-16 0.135503 2.71455 -3.63472e-16 1.68039)
(1.42258 -1.95674e-15 0.13674 2.73578 -1.41957e-16 1.6919)
(1.43332 1.1319e-15 0.137905 2.75491 3.19602e-17 1.70233)
(1.44269 7.359e-17 0.139377 2.77176 1.44556e-16 1.71219)
(0.432225 2.41405e-17 0.0136249 0.530908 6.02327e-17 0.932051)
(0.373549 1.44596e-16 0.0192831 0.779284 1.67275e-16 0.782059)
(0.445105 -5.41471e-16 0.0241223 0.956221 3.72791e-17 0.767173)
(0.516977 -4.31804e-17 0.0321038 1.09619 1.84437e-16 0.829951)
(0.587185 -2.61552e-16 0.0416654 1.23143 4.90466e-17 0.904425)
(0.656206 2.11742e-16 0.0521357 1.3621 -2.98338e-17 0.978793)
(0.72352 1.70733e-16 0.0627507 1.48794 2.87639e-17 1.04998)
(0.788869 5.40259e-16 0.0730242 1.60849 1.4883e-17 1.11684)
(0.851928 -5.20169e-16 0.082554 1.72355 -7.46023e-17 1.17916)
(0.912443 -1.18064e-15 0.0911506 1.83301 7.49473e-17 1.23717)
(0.970206 4.01128e-16 0.098755 1.93684 -4.69118e-17 1.29123)
(1.02506 -8.34003e-16 0.105445 2.03503 -8.66654e-17 1.34175)
(1.07684 8.48403e-16 0.111336 2.1275 -1.82789e-16 1.38903)
(1.12545 -6.62752e-16 0.116561 2.21419 2.6692e-16 1.43331)
(1.17081 3.29522e-16 0.121259 2.29507 -7.13284e-17 1.47472)
(1.21291 1.48172e-15 0.125533 2.37012 -1.22875e-16 1.51335)
(1.25174 -5.96728e-16 0.129459 2.43941 -1.47741e-16 1.54925)
(1.28741 -1.72685e-16 0.133093 2.50309 -1.84382e-16 1.58248)
(1.32003 -5.34686e-16 0.136472 2.56136 4.58501e-17 1.61311)
(1.34975 -1.75378e-16 0.139626 2.61448 1.33865e-16 1.64125)
(1.37676 1.63969e-16 0.142568 2.66275 6.97994e-18 1.66699)
(1.40123 -4.08451e-16 0.145308 2.70651 1.62923e-16 1.69048)
(1.42338 -2.16416e-16 0.147851 2.74611 2.61265e-16 1.71185)
(1.4434 -1.83814e-15 0.150211 2.78187 1.30801e-16 1.73125)
(1.46147 4.69313e-16 0.152397 2.81417 -7.96099e-17 1.74884)
(1.47778 1.02226e-15 0.154416 2.84327 -2.64707e-18 1.76476)
(1.4925 -9.2402e-16 0.156266 2.86952 6.09965e-17 1.77916)
(1.50577 -1.09333e-15 0.157983 2.89318 1.71843e-16 1.79219)
(1.51773 3.98947e-16 0.159607 2.91452 1.43693e-16 1.80399)
(1.52823 -7.18969e-16 0.161571 2.93331 7.83139e-17 1.81512)
(0.422854 2.43571e-17 0.0122833 0.520314 4.34524e-17 0.913124)
(0.366481 1.62007e-17 0.0186071 0.763225 1.50361e-16 0.77349)
(0.438044 -2.22072e-16 0.0237686 0.9421 -1.57047e-16 0.760676)
(0.512382 -2.43811e-16 0.0319696 1.08746 1.60089e-16 0.826637)
(0.586393 -2.87335e-16 0.0419784 1.2305 1.18163e-16 0.906104)
(0.659943 1.10056e-16 0.0530902 1.3703 -1.01036e-16 0.98646)
(0.73213 -8.58499e-16 0.0644965 1.50582 1.57334e-16 1.06399)
(0.802437 1.25144e-16 0.0756491 1.6361 9.83652e-17 1.13716)
(0.870381 7.38639e-16 0.0861095 1.76062 -5.6329e-17 1.20554)
(0.93561 1.10031e-15 0.095617 1.87913 -1.05573e-16 1.26924)
(0.997887 -7.89659e-16 0.104118 1.99154 -7.76651e-17 1.32862)
(1.05701 -1.69498e-16 0.111648 2.09778 1.70708e-16 1.38405)
(1.11282 9.89542e-16 0.118338 2.19779 -1.14222e-16 1.43589)
(1.16519 3.61548e-16 0.124325 2.29153 -1.59133e-16 1.48438)
(1.21408 -2.02577e-16 0.129744 2.37895 -1.42355e-17 1.52969)
(1.25944 -1.03839e-15 0.134706 2.46009 -1.70928e-18 1.57193)
(1.30132 4.70281e-16 0.139288 2.53502 5.30662e-17 1.61117)
(1.33981 1.51278e-15 0.143555 2.6039 -1.07905e-16 1.64749)
(1.37502 2.9987e-16 0.147549 2.66697 -2.2391e-17 1.68099)
(1.40714 -3.43916e-16 0.151279 2.7245 -8.8306e-17 1.71178)
(1.43635 7.87331e-16 0.154783 2.77683 2.49519e-16 1.73996)
(1.46285 -6.23783e-16 0.15806 2.82431 2.0113e-16 1.7657)
(1.48685 -9.22987e-17 0.161126 2.86731 -8.00285e-17 1.78914)
(1.50856 -6.64521e-16 0.163975 2.90619 8.05685e-17 1.81045)
(1.52819 -8.18003e-16 0.166626 2.94132 2.92023e-16 1.82979)
(1.54592 2.01122e-16 0.16908 2.97304 -5.37047e-17 1.84733)
(1.56193 -5.21081e-16 0.171347 3.00166 1.10129e-16 1.86321)
(1.57639 1.86568e-15 0.173461 3.02748 -4.42532e-17 1.87758)
(1.58943 1.68352e-15 0.175466 3.05079 -2.38814e-16 1.89063)
(1.60095 1.35258e-15 0.177839 3.07135 -2.27713e-16 1.9029)
(0.413033 1.81955e-17 0.0111325 0.509074 3.16864e-17 0.893109)
(0.359379 2.94307e-16 0.0178766 0.746989 -6.08605e-16 0.764582)
(0.431115 -3.32247e-16 0.0233075 0.928231 -1.71774e-16 0.754474)
(0.50779 3.47354e-16 0.0316181 1.07876 -1.88949e-17 0.823466)
(0.585243 -4.02257e-16 0.0418902 1.22892 4.45216e-16 0.907398)
(0.662834 -1.74786e-16 0.0533977 1.37688 1.71864e-16 0.993027)
(0.739297 -1.11667e-16 0.0653296 1.52094 -2.22832e-16 1.07608)
(0.813908 -1.80389e-16 0.0770767 1.65971 6.69592e-17 1.15468)
(0.886057 -1.51093e-16 0.0881601 1.79243 -6.9186e-17 1.22825)
(0.955331 4.82982e-16 0.0983017 1.91875 -2.42589e-18 1.29682)
(1.02145 1.64378e-16 0.107424 2.03851 -6.0919e-17 1.36069)
(1.0842 5.47213e-16 0.115553 2.15164 1.49453e-16 1.4203)
(1.14342 -2.98585e-16 0.122811 2.25811 2.44003e-16 1.47599)
(1.19901 1.42517e-16 0.129341 2.35786 -1.38696e-16 1.52805)
(1.25088 -3.57382e-16 0.135271 2.45088 -2.35808e-17 1.57666)
(1.29903 -9.83813e-16 0.140732 2.53721 -1.36099e-16 1.62196)
(1.3435 -1.35073e-16 0.145797 2.61696 4.84629e-17 1.66404)
(1.38439 -4.61082e-17 0.150532 2.69029 -2.42243e-17 1.703)
(1.42182 2.13065e-16 0.15497 2.75746 3.21418e-16 1.73894)
(1.45598 2.36768e-16 0.159149 2.81878 -2.99727e-16 1.77198)
(1.48706 -1.1565e-15 0.163069 2.87459 2.53748e-16 1.80225)
(1.51529 -3.97554e-16 0.166755 2.92527 1.38458e-16 1.82991)
(1.54088 7.97064e-17 0.170212 2.9712 -2.34368e-16 1.85513)
(1.56405 -8.33542e-16 0.173439 3.01278 1.22909e-16 1.87809)
(1.58501 8.61106e-16 0.176448 3.05037 -4.89439e-17 1.89893)
(1.60397 -1.15843e-15 0.179243 3.08434 -1.80234e-16 1.91785)
(1.6211 1.15812e-16 0.181837 3.11503 -1.4722e-16 1.93502)
(1.63659 1.48573e-15 0.18426 3.14274 1.2679e-17 1.95057)
(1.65057 -9.03174e-16 0.186571 3.16776 -5.52405e-16 1.96469)
(1.66294 -1.1287e-15 0.189268 3.18987 -2.34391e-17 1.97797)
(0.403504 1.41032e-17 0.0101471 0.498132 3.68814e-17 0.873626)
(0.352694 2.52958e-18 0.0171651 0.73151 5.01418e-16 0.756266)
(0.424666 1.29225e-16 0.022827 0.915326 7.09566e-17 0.749147)
(0.503562 -3.00771e-16 0.0311921 1.07086 1.42824e-16 0.821041)
(0.584211 -7.76156e-17 0.0416245 1.22764 1.11271e-16 0.909065)
(0.665474 -3.27357e-16 0.0533889 1.38305 1.2346e-16 0.999412)
(0.745765 -3.51918e-16 0.065652 1.53478 2.03695e-16 1.08735)
(0.824171 1.28045e-16 0.0777909 1.68106 2.01822e-16 1.17069)
(0.899969 1.29115e-16 0.0892784 1.82095 1.40095e-16 1.24873)
(0.972724 5.39743e-16 0.0998368 1.95401 -9.575e-17 1.32142)
(1.04213 -3.73379e-16 0.109354 2.08009 -1.26613e-16 1.38912)
(1.10796 -7.4741e-17 0.117874 2.19911 -2.18582e-16 1.45223)
(1.17008 -9.69378e-16 0.125505 2.31106 5.46706e-17 1.51116)
(1.22836 -3.70621e-16 0.132386 2.41591 1.56996e-16 1.56619)
(1.28276 1.37989e-16 0.138674 2.51367 -1.03878e-16 1.61757)
(1.33326 -5.61285e-16 0.144461 2.60439 5.53029e-17 1.66543)
(1.3799 -1.45408e-15 0.149855 2.6882 1.80833e-16 1.70988)
(1.4228 -7.68939e-16 0.154913 2.76531 1.02159e-16 1.75103)
(1.4621 -8.25041e-17 0.159662 2.83595 -1.81035e-16 1.78901)
(1.49797 -1.13915e-15 0.164148 2.90047 -1.5169e-16 1.82393)
(1.53065 -9.01128e-16 0.168372 2.95923 4.31219e-16 1.85596)
(1.56033 -1.30864e-15 0.172344 3.01262 -1.97477e-17 1.88523)
(1.58726 -2.76401e-16 0.176078 3.06103 -1.6769e-16 1.91195)
(1.61166 -2.56942e-16 0.179581 3.1049 -2.18711e-16 1.93628)
(1.63375 -2.22011e-16 0.182847 3.14458 3.06513e-16 1.95841)
(1.65373 1.29928e-15 0.185895 3.18047 -1.60104e-16 1.9785)
(1.67181 4.9033e-16 0.188729 3.21291 -2.95745e-16 1.99674)
(1.68816 -1.03218e-15 0.191386 3.24223 3.05798e-16 2.01329)
(1.70295 -7.04769e-16 0.19393 3.26873 -2.15011e-16 2.02832)
(1.71605 -7.55438e-16 0.196862 3.29216 8.56385e-17 2.04245)
(0.394567 1.01443e-17 0.00928019 0.487879 3.91877e-17 0.855338)
(0.346549 1.45539e-16 0.0164841 0.717058 -9.46072e-17 0.748825)
(0.41876 -1.17303e-16 0.0223543 0.90352 1.55199e-17 0.74482)
(0.499779 1.80739e-16 0.0307437 1.0639 -1.52498e-16 0.819506)
(0.583432 4.04848e-16 0.0412748 1.22694 -6.5589e-17 0.911324)
(0.668089 -6.41668e-16 0.0532115 1.38925 2.80431e-17 1.00598)
(0.751839 4.19808e-16 0.0656867 1.54794 -1.51647e-16 1.09827)
(0.833614 -7.09782e-16 0.0780649 1.70091 4.74465e-17 1.18577)
(0.912622 -9.79546e-16 0.089814 1.84711 2.87359e-17 1.26767)
(0.988392 2.78468e-16 0.100618 1.98605 -3.05838e-16 1.3439)
(1.0606 3.08103e-16 0.110378 2.11756 1.68903e-17 1.41482)
(1.12906 1.18203e-15 0.119125 2.24162 -2.79225e-16 1.48088)
(1.19362 -1.66104e-16 0.12697 2.35822 8.11884e-17 1.5425)
(1.25419 1.24627e-15 0.134074 2.46738 -3.44404e-17 1.60001)
(1.31069 -7.71032e-16 0.140564 2.56913 -2.23653e-17 1.65368)
(1.36316 -1.95992e-16 0.146557 2.66355 -4.80989e-17 1.70365)
(1.41162 3.05569e-16 0.152158 2.75078 2.26575e-16 1.75006)
(1.45621 6.76389e-16 0.157408 2.83104 5.70639e-17 1.79303)
(1.49706 6.34854e-16 0.162364 2.9046 -1.15552e-16 1.8327)
(1.53437 4.40985e-16 0.167039 2.9718 -2.48051e-16 1.86917)
(1.56836 -2.57259e-16 0.171459 3.03303 1.43838e-16 1.90264)
(1.59926 2.7896e-16 0.175628 3.08868 1.44559e-16 1.93325)
(1.62731 -2.5636e-16 0.179549 3.13919 -3.22639e-17 1.9612)
(1.65273 -4.8113e-16 0.183231 3.18496 -5.63307e-16 1.98667)
(1.67575 -2.15269e-16 0.186677 3.2264 1.02227e-16 2.00985)
(1.6966 -1.01925e-15 0.189889 3.2639 2.86611e-17 2.03091)
(1.71547 -1.31493e-15 0.192886 3.29782 -1.36755e-17 2.05005)
(1.73255 2.34381e-16 0.195712 3.32849 3.54865e-16 2.06743)
(1.748 2.14232e-16 0.198422 3.35623 -1.61281e-16 2.08323)
(1.76169 1.71315e-16 0.201522 3.38078 -5.00022e-17 2.09807)
(0.386267 1.7905e-17 0.00850399 0.478378 3.63302e-17 0.838387)
(0.340936 -2.01397e-16 0.0158389 0.703614 4.35202e-16 0.742242)
(0.413357 -4.43406e-16 0.0218946 0.892732 -1.75666e-16 0.741451)
(0.49642 5.31283e-17 0.0302876 1.05784 -8.85099e-17 0.818842)
(0.582907 1.07558e-16 0.0408794 1.22684 -1.52386e-16 0.914217)
(0.670706 -2.02177e-16 0.0529162 1.39554 -9.34723e-17 1.01281)
(0.757614 5.65482e-16 0.065534 1.56059 -1.59238e-16 1.109)
(0.84241 -5.00765e-16 0.0780529 1.71958 1.49303e-16 1.20017)
(0.92423 3.68763e-16 0.0899442 1.87133 1.92968e-16 1.2854)
(1.0026 1.54989e-17 0.100883 2.01538 2.28773e-16 1.36467)
(1.07722 9.02218e-17 0.110769 2.15156 -9.06917e-17 1.43829)
(1.14792 -2.00598e-16 0.119636 2.27991 -1.14125e-16 1.50681)
(1.21454 -8.36542e-16 0.127593 2.40046 3.29786e-16 1.57066)
(1.27702 -4.41042e-16 0.134798 2.51325 -8.01403e-17 1.63023)
(1.33529 -3.72137e-16 0.141385 2.61836 -1.33548e-16 1.68577)
(1.38939 4.29086e-16 0.14749 2.71587 -3.30062e-18 1.73748)
(1.43938 -7.98141e-16 0.153195 2.80596 1.02673e-16 1.7855)