/*--------------------------------*- C++ -*----------------------------------*\
| =========                 |                                                 |
| \\      /  F ield         | OpenFOAM: The Open Source CFD Toolbox           |
|  \\    /   O peration     | Version:  2312                                  |
|   \\  /    A nd           | Website:  www.openfoam.com                      |
|    \\/     M anipulation  |                                                 |
\*---------------------------------------------------------------------------*/
FoamFile
{
    version     2.0;
    format      ascii;
    arch        "LSB;label=32;scalar=64";
    class       volScalarField;
    location    "20000";
    object      T;
}
// * * * * * * * * * * * * * * * * * * * * * * * * * * * * * * * * * * * * * //

dimensions      [0 0 0 1 0 0 0];

internalField   nonuniform List<scalar> 
29400
(
312.981
313.15
313.286
313.351
313.422
313.582
313.588
313.639
313.719
313.768
313.819
313.858
313.889
313.913
313.932
313.95
313.966
313.98
313.994
314.001
314.012
314.016
314.022
314.026
314.031
314.036
314.041
314.049
314.042
314.04
304.738
305.062
305.3
305.436
305.586
305.733
305.901
305.985
305.969
306.034
306.152
306.252
306.331
306.392
306.44
306.484
306.525
306.563
306.596
306.632
306.658
306.689
306.708
306.732
306.747
306.764
306.777
306.789
306.815
306.814
300.805
301.03
301.225
301.362
301.525
301.533
301.61
301.675
301.759
301.814
301.846
301.922
301.992
302.051
302.103
302.151
302.197
302.239
302.278
302.314
302.346
302.375
302.405
302.427
302.453
302.471
302.491
302.506
302.521
302.557
299.482
299.626
299.77
299.884
299.914
299.95
299.999
300.052
300.107
300.152
300.198
300.255
300.308
300.356
300.399
300.439
300.478
300.514
300.547
300.576
300.603
300.628
300.651
300.671
300.69
300.707
300.723
300.737
300.749
300.766
298.953
299.041
299.097
299.129
299.166
299.207
299.252
299.297
299.342
299.383
299.426
299.471
299.514
299.553
299.589
299.623
299.656
299.686
299.714
299.739
299.763
299.784
299.804
299.823
299.839
299.855
299.869
299.882
299.894
299.906
298.666
298.695
298.685
298.682
298.713
298.751
298.791
298.831
298.869
298.907
298.944
298.982
299.017
299.049
299.079
299.108
299.136
299.162
299.185
299.208
299.228
299.247
299.265
299.282
299.297
299.311
299.325
299.337
299.348
299.359
298.456
298.447
298.415
298.42
298.421
298.449
298.481
298.515
298.547
298.578
298.61
298.64
298.668
298.695
298.72
298.744
298.767
298.788
298.808
298.827
298.845
298.861
298.877
298.891
298.904
298.917
298.929
298.939
298.949
298.959
298.293
298.271
298.241
298.249
298.254
298.258
298.279
298.305
298.33
298.355
298.38
298.404
298.427
298.448
298.468
298.488
298.506
298.523
298.54
298.555
298.569
298.583
298.596
298.608
298.619
298.63
298.64
298.649
298.657
298.666
298.178
298.152
298.133
298.129
298.138
298.144
298.154
298.171
298.19
298.209
298.227
298.245
298.263
298.279
298.295
298.31
298.324
298.338
298.35
298.363
298.374
298.385
298.395
298.405
298.414
298.423
298.431
298.438
298.445
298.452
298.102
298.08
298.068
298.067
298.069
298.077
298.084
298.091
298.103
298.116
298.13
298.142
298.155
298.167
298.179
298.19
298.2
298.211
298.22
298.23
298.238
298.247
298.255
298.262
298.269
298.276
298.283
298.288
298.294
298.299
298.054
298.04
298.032
298.033
298.031
298.037
298.041
298.046
298.053
298.061
298.07
298.079
298.087
298.096
298.104
298.112
298.119
298.127
298.134
298.14
298.147
298.153
298.159
298.165
298.17
298.175
298.18
298.184
298.189
298.193
298.027
298.018
298.014
298.015
298.015
298.016
298.019
298.022
298.026
298.03
298.036
298.041
298.047
298.052
298.058
298.063
298.068
298.073
298.078
298.083
298.087
298.092
298.096
298.1
298.104
298.107
298.111
298.114
298.117
298.12
298.012
298.008
298.006
298.006
298.006
298.007
298.008
298.01
298.012
298.014
298.017
298.02
298.024
298.027
298.03
298.034
298.037
298.04
298.044
298.047
298.05
298.053
298.056
298.058
298.061
298.063
298.066
298.068
298.07
298.072
298.005
298.003
298.002
298.003
298.003
298.003
298.003
298.004
298.005
298.006
298.008
298.01
298.011
298.013
298.015
298.017
298.019
298.021
298.023
298.025
298.027
298.029
298.031
298.033
298.034
298.036
298.038
298.039
298.041
298.042
298.002
298.001
298.001
298.001
298.001
298.001
298.001
298.002
298.002
298.003
298.003
298.004
298.005
298.006
298.007
298.008
298.01
298.011
298.012
298.013
298.014
298.015
298.016
298.018
298.019
298.02
298.021
298.022
298.023
298.023
298.001
298
298
298
298
298
298
298.001
298.001
298.001
298.001
298.002
298.002
298.003
298.003
298.004
298.004
298.005
298.006
298.006
298.007
298.008
298.008
298.009
298.01
298.01
298.011
298.012
298.012
298.013
298
298
298
298
298
298
298
298
298
298
298
298.001
298.001
298.001
298.001
298.002
298.002
298.002
298.003
298.003
298.003
298.004
298.004
298.004
298.005
298.005
298.006
298.006
298.006
298.006
298
298
298
298
298
298
298
298
298
298
298
298
298
298
298.001
298.001
298.001
298.001
298.001
298.001
298.002
298.002
298.002
298.002
298.002
298.002
298.003
298.003
298.003
298.003
298
298
298
298
298
298
298
298
298
298
298
298
298
298
298
298
298
298
298
298.001
298.001
298.001
298.001
298.001
298.001
298.001
298.001
298.001
298.001
298.001
298
298
298
298
298
298
298
298
298
298
298
298
298
298
298
298
298
298
298
298
298
298
298
298
298
298
298.001
298.001
298.001
298.001
298
298
298
298
298
298
298
298
298
298
298
298
298
298
298
298
298
298
298
298
298
298
298
298
298
298
298
298
298
298
298
298
298
298
298
298
298
298
298
298
298
298
298
298
298
298
298
298
298
298
298
298
298
298
298
298
298
298
298
298
298
298
298
298
298
298
298
298
298
298
298
298
298
298
298
298
298
298
298
298
298
298
298
298
298
298
298
298
298
298
298
298
298
298
298
298
298
298
298
298
298
298
298
298
298
298
298
298
298
298
298
298
298
298
298
298
298
298
298
298
298
298
298
298
298
298
298
298
298
298
298
298
298
298
298
298
298
298
298
298
298
298
298
298
298
298
298
298
298
298
298
298
298
298
298
298
298
298
298
298
298
298
298
298
298
298
298
298
298
298
298
298
298
298
298
298
298
298
298
298
298
298
298
298
298
298
298
298
298
298
298
298
298
298
298
298
298
298
298
298
298
298
298
298
298
298
298
298
298
298
298
298
298
298
298
298
298
298
298
298
298
298
298
298
298
298
298
298
298
298
298
298
298
298
298
298
298
298
298
298
298
298
298
298
298
298
298
298
298
298
298
298
298
298
298
298
298
298
298
298
298
298
298
298
298
298
298
298
298
298
298
298
298
298
298
298
298
298
298
298
298
298
298
298
298
298
298
298
298
298
298
298
298
298
298
298
298
298
298
298
298
298
298
298
298
298
298
298
298
298
298
298
298
298
298
298
298
298
298
298
298
298
298
298
298
298
298
298
298
298
298
298
298
298
298
298
298
298
298
298
298
298
298
298
298
298
298
298
298
298
298
298
298
298
298
298
298
298
298
298
298
298
298
298
298
298
298
298
298
298
298
298
298
298
298
298
298
298
298
298
298
298
298
298
298
298
298
298
298
298
298
298
298
298
298
298
298
298
298
298
298
298
298
298
298
298
298
298
298
298
298
298
298
298
298
298
298
298
298
298
298
298
298
298
298
298
298
298
298
298
298
298
298
298
298
298
298
298
298
298
298
298
298
298
298
298
298
298
298
298
298
298
298
298
298
298
298
298
298
298
298
298
298
298
298
298
298
298
298
298
298
298
298
298
298
298
298
298
298
298
298
298
298
298
298
298
298
298
298
298
298
298
298
298
298
298
298
298
298
298
298
298
298
298
298
298
298
298
298
298
298
298
298
298
298
298
298
298
298
298
298
298
298
298
298
298
298
298
298
298
298
298
298
298
298
298
298
298
298
298
298
298
298
298
298
298
298
298
298
298
298
298
298
298
298
298
298
298
298
298
298
298
298
298
298
298
298
298
298
298
298
298
298
298
298
298
298
298
298
298
298
298
298
298
298
298
298
298
298
298
298
298
298
298
298
298
298
298
298
298
298
298
298
298
298
298
298
298
298
298
298
298
298
298
298
298
298
298
298
298
298
298
298
298
298
298
298
298
298
298
298
298
298
298
298
298
298
298
298
298
298
298
298
298
298
298
298
298
298
298
298
298
298
298
298
298
298
298
298
298
298
298
298
298
298
298
298
298
298
298
298
298
298
298
298
298
298
298
298
298
298
298
298
298
298
298
298
298
298
298
298
298
298
298
298
298
298
298
298
298
298
298
298
298
298
298
298
298
298
298
298
298
298
298
298
298
298
298
298
298
298
298
298
298
298
298
298
298
298
298
298
298
298
298
298
298
298
298
298
298
298
298
298
298
298
298
298
298
298
298
298
298
298
298
298
298
298
298
298
298
298
298
298
298
298
298
298
298
298
298
298
298
298
298
298
298
298
298
298
298
298
298
298
298
298
298
298
298
298
298
298
298
298
298
298
298
298
298
298
298
298
298
298
298
298
298
298
298
298
298
298
298
298
298
298
298
298
298
298
298
298
298
298
298
298
298
298
298
298
298
298
298
298
298
298
298
298
298
298
298
298
298
298
298
298
298
298
298
298
298
298
298
298
298
298
298
298
298
298
298
298
298
298
298
298
298
298
298
298
298
298
298
298
298
298
298
298
298
298
298
298
298
298
298
298
298
298
298
298
298
298
298
298
298
298
298
298
298
298
298
298
298
298
298
298
298
298
298
298
298
298
298
298
298
298
298
298
298
298
298
298
298
298
298
298
298
298
298
298
298
298
298
298
298
298
298
298
298
298
298
298
298
298
298
298
298
298
298
298
298
298
298
298
298
298
298
298
298
298
298
298
298
298
298
298
298
298
298
298
298
298
298
298
298
298
298
298
298
298
298
298
298
298
298
298
298
298
298
298
298
298
298
298
298
298
298
298
298
298
298
298
298
298
298
298
298
298
298
298
298
298
298
298
298
298
298
298
298
298
298
298
298
298
298
298
298
298
298
298
298
298
298
298
298
298
298
298
298
298
298
298
298
298
298
298
298
298
298
298
298
298
298
298
298
298
298
298
298
298
298
298
298
298
298
298
298
298
298
298
298
298
298
298
298
298
298
298
298
298
298
298
298
298
298
298
298
298
298
298
298
298
298
298
298
298
298
298
298
298
298
298
298
298
298
298
298
298
298
298
298
298
298
298
298
298
298
298
298
298
298
298
298
298
298
298
298
298
298
298
298
298
298
298
298
298
298
298
298
298
298
298
298
298
298
298
298
298
298
298
298
298
298
298
298
298
298
298
298
298
298
298
298
298
298
298
298
298
298
298
298
298
298
298
298
298
298
298
298
298
298
298
298
298
298
298
298
298
298
298
298
298
298
298
298
298
298
298
298
298
298
298
298
298
298
298
298
298
298
298
298
298
298
298
298
298
298
298
298
298
298
298
298
298
298
298
298
298
298
298
298
298
298
298
298
298
298
298
298
298
298
298
298
298
298
298
298
298
298
298
298
298
298
298
298
298
298
298
298
298
298
298
298
298
298
298
298
298
298
298
298
298
298
298
298
298
298
298
298
298
298
298
298
298
298
298
298
298
298
298
298
298
298
298
298
298
298
298
298
298
298
298
298
298
298
298
298
298
298
298
298
298
298
298
298
298
298
298
298
298
298
298
298
298
298
298
298
298
298
298
298
298
298
298
298
298
298
298
298
298
298
298
298
298
298
298
298
298
298
298
298
298
298
298
298
298
298
298
298
298
298
298
298
298
298
298
298
298
298
298
298
298
298
298
298
298
298
298
298
298
298
298
298
298
298
298
298
298
298
298
298
298
298
298
298
298
298
298
298
298
298
298
298
298
298
298
298
298
298
298
298
298
298
298
298
298
298
298
298
298
298
298
298
298
298
298
298
298
298
298
298
298
298
298
298
298
298
298
298
298
298
298
298
298
298
298
298
298
298
298
298
298
298
298
298
298
298
298
298
298
298
298
298
298
298
298
298
298
298
298
298
298
298
298
298
298
298
298
298
298
298
298
298
298
298
298
298
298
298
298
298
298
298
298
298
298
298
298
298
298
298
298
298
298
298
298
298
298
298
298
298
298
298
298
298
298
298
298
298
298
298
298
298
298
298
298
298
298
298
298
298
298
298
298
298
298
298
298
298
298
298
298
298
298
298
298
298
298
298
298
298
298
298
298
298
298
298
298
298
298
298
298
298
298
298
298
298
298
298
298
298
298
298
298
298
298
298
298
298
298
298
298
298
298
298
298
298
298
298
298
298
298
298
298
298
298
298
298
298
298
298
298
298
298
298
298
298
298
298
298
298
298
298
298
298
298
298
298
298
298
298
298
298
298
298
298
298
298
298
298
298
298
298
298
298
298
298
298
298
298
298
298
298
298
298
298
298
298
298
298
298
298
298
298
298
298
298
298
298
298
298
298
298
298
298
298
298
298
298
298
298
298
298
298
298
298
298
298
298
298
298
298
298
298
298
298
298
298
298
298
298
298
298
298
298
298
298
298
298
298
298
298
298
298
298
298
298
298
298
298
298
298
298
298
298
298
298
298
298
298
298
298
298
298
298
298
298
298
298
298
298
298
298
298
298
298
298
298
298
298
298
298
298
298
298
298
298
298
298
298
298
298
298
298
298
298
298
298
298
298
298
298
298
298
298
298
298
298
298
298
298
298
298
298
298
298
298
298
298
298
298
298
298
298
298
298
298
298
298
298
298
298
298
298
298
298
298
298
298
298
298
298
298
298
298
298
298
298
298
298
298
298
298
298
298
298
298
298
298
298
298
298
298
298
298
298
298
298
298
298
298
298
298
298
298
298
298
298
298
298
298
298
298
298
298
298
298
298
298
298
298
298
298
298
298
298
298
298
298
298
298
298
298
298
298
298
298
298
298
298
298
298
298
298
298
298
298
298
298
298
298
298
298
298
298
298
298
298
298
298
298
298
298
298
298
298
298
298
298
298
298
298
298
298
298
298
298
298
298
298
298
298
298
298
298
298
298
298
298
298
298
298
298
298
298
298
298
298
298
298
298
298
298
298
298
298
298
298
298
298
298
298
298
298
298
298
298
298
298
298
298
298
298
298
298
298
298
298
298
298
298
298
298
298
298
298
298
298
298
298
298
298
298
298
298
298
298
298
298
298
298
298
298
298
298
298
298
298
298
298
298
298
298
298
298
298
298
298
298
298
298
298
298
298
298
298
298
298
298
298
298
298
298
298
298
298
298
298
298
298
298
298
298
298
298
298
298
298
298
298
298
298
298
298
298
298
298
298
298
298
298
298
298
298
298
298
298
298
298
298
298
298
298
298
298
298
298
298
298
298
298
298
298
298
298
298
298
298
298
298
298
298
298
298
298
298
298
298
298
298
298
298
298
298
298
298
298
298
298
298
298
298
298
298
298
298
298
298
298
298
298
298
298
298
298
298
298
298
298
298
298
298
298
298
298
298
298
298
298
298
298
298
298
298
298
298
298
298
298
298
298
298
298
298
298
298
298
298
298
298
298
298
298
298
298
298
298
298
298
298
298
298
298
298
298
298
298
298
298
298
298
298
298
298
298
298
298
298
298
298
298
298
298
298
298
298
298
298
298
298
298
298
298
298
298
298
298
298
298
298
298
298
298
298
298
298
298
298
298
298
298
298
298
298
298
298
298
298
298
298
298
298
298
298
298
298
298
298
298
298
298
298
298
298
298
298
298
298
298
298
298
298
298
298
298
298
298
298
298
298
298
298
298
298
298
298
298
298
298
298
298
298
298
298
298
298
298
298
298
298
298
298
298
298
298
298
298
298
298
298
298
298
298
298
298
298
298
298
298
298
298
298
298
298
298
298
298
298
298
298
298
298
298
298
298
298
298
298
298
298
298
298
298
298
298
298
298
298
298
298
298
298
298
298
298
298
298
298
298
298
298
298
298
298
298
298
298
298
298
298
298
298
298
298
298
298
298
298
298
298
298
298
298
298
298
298
298
298
298
298
298
298
298
298
298
298
298
298
298
298
298
298
298
298
298
298
298
298
298
298
298
298
298
298
298
298
298
298
298
298
298
298
298
298
298
298
298
298
298
298
298
298
298
298
298
298
298
298
298
298
298
298
298
298
298
298
298
298
298
298
298
298
298
298
298
298
298
298
298
298
298
298
298
298
298
298
298
298
298
298
298
298
298
298
298
298
298
298
298
298
298
298
298
298
298
298
298
298
298
298
298
298
298
298
298
298
298
298
298
298
298
298
298
298
298
298
298
298
298
298
298
298
298
298
298
298
298
298
298
298
298
298
298
298
298
298
298
298
298
298
298
298
298
298
298
298
298
298
298
298
298
298
298
298
298
298
298
298
298
298
298
298
298
298
298
298
298
298
298
298
298
298
298
298
298
298
298
298
298
298
298
298
298
298
298
298
298
298
298
298
298
298
298
298
298
298
298
298
298
298
298
298
298
298
298
298
298
298
298
298
298
298
298
298
298
298
298
298
298
298
298
298
298
298
298
298
298
298
298
298
298
298
298
298
298
298
298
298
298
298
298
298
298
298
298
298
298
298
298
298
298
298
298
298
298
298
298
298
298
298
298
298
298
298
298
298
298
298
298
298
298
298
298
298
298
298
298
298
298
298
298
298
298
298
298
298
298
298
298
298
298
298
298
298
298
298
298
298
298
298
298
298
298
298
298
298
298
298
298
298
298
298
298
298
298
298
298
298
298
298
298
298
298
298
298
298
298
298
298
298
298
298
298
298
298
298
298
298
298
298
298
298
298
298
298
298
298
298
298
298
298
298
298
298
298
298
298
298
298
298
298
298
298
298
298
298
298
298
298
298
298
298
298
298
298
298
298
298
298
298
298
298
298
298
298
298
298
298
298
298
298
298
298
298
298
298
298
298
298
298
298
298
298
298
298
298
298
298
298
298
298
298
298
298
298
298
298
298
298
298
298
298
298
298
298
298
298
298
298
298
298
298
298
298
298
298
298
298
298
298
298
298
298
298
298
298
298
298
298
298
298
298
298
298
298
298
298
298
298
298
298
298
298
298
298
298
298
298
298
298
298
298
298
298
298
298
298
298
298
298
298
298
298
298
298
298
298
298
298
298
298
298
298
298
298
298
298
298
298
298
298
298
298
298
298
298
298
298
298
298
298
298
298
298
298
298
298
298
298
298
298
298
298
298
298
298
298
298
298
298
298
298
298
298
298
298
298
298
298
298
298
298
298
298
298
298
298
298
298
298
298
298
298
298
298
298
298
298
298
298
298
298
298
298
298
298
298
298
298
298
298
298
298
298
298
298
298
298
298
298
298
298
298
298
298
298
298
298
298
298
298
298
298
298
298
298
298
298
298
298
298
298
298
298
298
298
298
298
298
298
298
298
298
298
298
298
298
298
298
298
298
298
298
298
298
298
298
298
298
298
298
298
298
298
298
298
298
298
298
298
298
298
298
298
298
298
298
298
298
298
298
298
298
298
298
298
298
298
298
298
298
298
298
298
298
298
298
298
298
298
298
298
298
298
298
298
298
298
298
298
298
298
298
298
298
298
298
298
298
298
298
298
298
298
298
298
298
298
298
298
298
298
298
298
298
298
298
298
298
298
298
298
298
298
298
298
298
298
298
298
298
298
298
298
298
298
298
298
298
298
298
298
298
298
298
298
298
298
298
298
298
298
298
298
298
298
298
298
298
298
298
298
298
298
298
298
298
298
298
298
298
298
298
298
298
298
298
298
298
298
298
298
298
298
298
298
298
298
298
298
298
298
298
298
298
298
298
298
298
298
298
298
298
298
298
298
298
298
298
298
298
298
298
298
298
298
298
298
298
298
298
298
298
298
298
298
298
298
298
298
298
298
298
298
298
298
298
298
298
298
298
298
298
298
298
298
298
298
298
298
298
298
298
298
298
298
298
298
298
298
298
298
298
298
298
298
298
298
298
298
298
298
298
298
298
298
298
298
298
298
298
298
298
298
298
298
298
298
298
298
298
298
298
298
298
298
298
298
298
298
298
298
298
298
298
298
298
298
298
298
298
298
298
298
298
298
298
298
298
298
298
298
298
298
298
298
298
298
298
298
298
298
298
298
298
298
298
298
298
298
298
298
298
298
298
298
298
298
298
298
298
298
298
298
298
298
298
298
298
298
298
298
298
298
298
298
298
298
298
298
298
298
298
298
298
298
298
298
298
298
298
298
298
298
298
298
298
298
298
298
298
298
298
298
298
298
298
298
298
298
298
298
298
298
298
298
298
298
298
298
298
298
298
298
298
298
298
298
298
298
298
298
298
298
298
298
298
298
298
298
298
298
298
298
298
298
298
298
298
298
298
298
298
298
298
298
298
298
298
298
298
298
298
298
298
298
298
298
298
298
298
298
298
298
298
298
298
298
298
298
298
298
298
298
298
298
298
298
298
298
298
298
298
298
298
298
298
298
298
298
298
298
298
298
298
298
298
298
298
298
298
298
298
298
298
298
298
298
298
298
298
298
298
298
298
298
298
298
298
298
298
298
298
298
298
298
298
298
298
298
298
298
298
298
298
298
298
298
298
298
298
298
298
298
298
298
298
298
298
298
298
298
298
298
298
298
298
298
298
298
298
298
298
298
298
298
298
298
298
298
298
298
298
298
298
298
298
298
298
298
298
298
298
298
298
298
298
298
298
298
298
298
298
298
298
298
298
298
298
298
298
298
298
298
298
298
298
298
298
298
298
298
298
298
298
298
298
298
298
298
298
298
298
298
298
298
298
298
298
298
298
298
298
298
298
298
298
298
298
298
298
298
298
298
298
298
298
298
298
298
298
298
298
298
298
298
298
298
298
298
298
314.035
314.051
314.065
314.076
314.084
314.09
314.095
314.099
314.103
314.107
314.111
314.115
314.119
314.124
314.128
314.133
314.138
314.143
314.149
314.154
314.16
314.166
314.173
314.179
314.186
314.192
314.199
314.207
314.214
314.222
314.23
314.239
314.248
314.257
314.267
314.277
314.288
314.298
314.309
314.32
314.332
314.344
314.356
314.368
314.381
314.394
314.408
314.422
314.436
314.451
314.466
314.482
314.497
314.513
314.53
314.547
314.564
314.582
314.6
314.618
314.637
314.657
314.676
314.696
314.717
314.738
314.759
314.781
314.803
314.826
314.849
314.873
314.897
314.921
314.946
314.972
314.997
315.023
315.05
315.077
315.104
315.132
315.16
315.189
315.218
315.247
315.277
315.307
315.337
315.367
315.398
315.429
315.46
315.491
315.523
315.555
315.586
315.618
315.65
315.682
315.715
315.747
315.779
315.811
315.843
315.876
315.908
315.94
315.974
316.009
316.044
316.079
316.114
316.148
316.182
316.215
316.248
316.28
316.312
316.343
316.374
316.404
316.434
316.463
316.492
316.52
316.548
316.575
316.602
316.628
316.654
316.68
316.705
316.729
316.754
316.777
316.8
316.823
316.846
316.868
316.889
316.91
316.931
316.951
316.971
316.991
317.01
317.029
317.047
317.065
317.083
317.1
317.117
317.134
317.15
317.166
317.182
317.197
317.212
317.226
317.241
317.255
317.268
317.281
317.294
317.307
317.319
317.331
317.343
317.354
317.365
317.375
317.385
317.395
317.404
317.412
317.421
317.429
317.438
317.452
306.816
306.828
306.842
306.856
306.869
306.881
306.893
306.905
306.917
306.929
306.941
306.953
306.966
306.979
306.993
307.007
307.022
307.037
307.052
307.068
307.085
307.101
307.119
307.136
307.154
307.173
307.192
307.211
307.231
307.251
307.273
307.295
307.319
307.343
307.368
307.393
307.42
307.447
307.474
307.502
307.531
307.56
307.591
307.621
307.653
307.686
307.72
307.754
307.79
307.826
307.862
307.9
307.938
307.978
308.018
308.059
308.101
308.144
308.188
308.233
308.279
308.327
308.375
308.424
308.475
308.526
308.579
308.633
308.688
308.744
308.802
308.861
308.921
308.983
309.046
309.11
309.175
309.242
309.311
309.38
309.452
309.524
309.598
309.673
309.75
309.828
309.908
309.988
310.07
310.152
310.236
310.321
310.407
310.494
310.582
310.67
310.76
310.85
310.94
311.031
311.123
311.215
311.308
311.401
311.495
311.588
311.682
311.777
311.876
311.978
312.082
312.186
312.288
312.39
312.49
312.589
312.687
312.783
312.878
312.972
313.064
313.155
313.245
313.333
313.419
313.505
313.589
313.671
313.752
313.832
313.91
313.988
314.063
314.138
314.211
314.283
314.353
314.422
314.49
314.557
314.622
314.686
314.749
314.81
314.871
314.93
314.989
315.046
315.102
315.157
315.211
315.264
315.315
315.366
315.415
315.464
315.511
315.557
315.603
315.647
315.69
315.733
315.774
315.814
315.854
315.892
315.929
315.965
316.001
316.035
316.067
316.099
316.13
316.159
316.187
316.213
316.24
316.263
316.29
316.333
302.582
302.588
302.598
302.609
302.622
302.635
302.649
302.664
302.68
302.696
302.713
302.73
302.748
302.766
302.784
302.803
302.822
302.841
302.861
302.881
302.902
302.922
302.943
302.964
302.986
303.007
303.03
303.052
303.076
303.1
303.126
303.151
303.178
303.205
303.232
303.261
303.289
303.319
303.348
303.378
303.409
303.441
303.473
303.506
303.54
303.574
303.609
303.645
303.682
303.719
303.757
303.795
303.835
303.875
303.916
303.958
304.001
304.044
304.089
304.134
304.18
304.228
304.276
304.325
304.376
304.427
304.479
304.533
304.588
304.644
304.701
304.759
304.819
304.88
304.943
305.007
305.072
305.139
305.207
305.277
305.349
305.422
305.497
305.574
305.652
305.732
305.814
305.898
305.984
306.071
306.161
306.252
306.346
306.441
306.538
306.637
306.738
306.841
306.945
307.052
307.161
307.271
307.384
307.498
307.614
307.732
307.851
307.975
308.104
308.238
308.378
308.519
308.661
308.803
308.945
309.087
309.228
309.369
309.51
309.649
309.788
309.927
310.064
310.2
310.334
310.468
310.6
310.731
310.86
310.988
311.114
311.239
311.362
311.483
311.603
311.72
311.836
311.95
312.062
312.173
312.281
312.388
312.492
312.595
312.697
312.796
312.894
312.99
313.084
313.177
313.267
313.356
313.444
313.529
313.613
313.694
313.774
313.853
313.929
314.004
314.078
314.149
314.219
314.288
314.354
314.419
314.482
314.544
314.604
314.661
314.717
314.771
314.822
314.872
314.919
314.964
315.009
315.048
315.095
315.167
300.784
300.795
300.807
300.82
300.832
300.846
300.86
300.875
300.89
300.906
300.921
300.937
300.954
300.97
300.987
301.004
301.021
301.039
301.056
301.074
301.092
301.111
301.129
301.148
301.167
301.187
301.207
301.228
301.25
301.272
301.294
301.317
301.341
301.365
301.389
301.414
301.438
301.464
301.489
301.515
301.542
301.569
301.597
301.626
301.655
301.685
301.715
301.746
301.777
301.808
301.84
301.873
301.907
301.941
301.976
302.011
302.047
302.084
302.121
302.16
302.198
302.238
302.279
302.32
302.362
302.404
302.448
302.492
302.538
302.584
302.631
302.679
302.728
302.778
302.829
302.882
302.935
302.989
303.045
303.102
303.16
303.219
303.279
303.341
303.404
303.469
303.535
303.602
303.671
303.741
303.813
303.887
303.963
304.04
304.119
304.2
304.282
304.367
304.454
304.542
304.633
304.726
304.821
304.918
305.017
305.119
305.223
305.332
305.447
305.567
305.694
305.823
305.955
306.088
306.223
306.36
306.498
306.638
306.779
306.921
307.065
307.209
307.354
307.5
307.647
307.794
307.941
308.089
308.237
308.385
308.533
308.681
308.828
308.975
309.121
309.266
309.411
309.554
309.697
309.838
309.978
310.116
310.253
310.388
310.523
310.655
310.786
310.915
311.042
311.168
311.292
311.414
311.533
311.651
311.767
311.88
311.991
312.1
312.207
312.312
312.415
312.515
312.614
312.71
312.804
312.895
312.984
313.071
313.156
313.237
313.316
313.392
313.466
313.536
313.603
313.667
313.731
313.786
313.853
313.956
299.92
299.934
299.947
299.961
299.975
299.989
300.003
300.016
300.03
300.044
300.057
300.071
300.086
300.1
300.114
300.129
300.144
300.159
300.175
300.19
300.206
300.222
300.238
300.254
300.271
300.289
300.307
300.326
300.346
300.366
300.386
300.406
300.427
300.448
300.469
300.49
300.512
300.534
300.556
300.579
300.602
300.626
300.651
300.676
300.701
300.727
300.753
300.78
300.806
300.833
300.861
300.89
300.919
300.948
300.978
301.009
301.04
301.071
301.103
301.136
301.17
301.204
301.238
301.273
301.309
301.345
301.382
301.42
301.458
301.497
301.537
301.577
301.619
301.661
301.704
301.747
301.792
301.837
301.884
301.931
301.979
302.028
302.078
302.128
302.18
302.233
302.287
302.342
302.398
302.456
302.514
302.574
302.635
302.697
302.761
302.826
302.892
302.96
303.03
303.101
303.174
303.248
303.325
303.403
303.483
303.565
303.649
303.737
303.83
303.928
304.031
304.136
304.244
304.354
304.466
304.58
304.696
304.814
304.933
305.055
305.178
305.304
305.431
305.56
305.69
305.822
305.956
306.091
306.228
306.366
306.506
306.646
306.788
306.931
307.075
307.219
307.365
307.51
307.657
307.803
307.95
308.096
308.243
308.39
308.536
308.682
308.828
308.974
309.118
309.262
309.405
309.546
309.687
309.826
309.963
310.099
310.233
310.365
310.495
310.624
310.75
310.875
310.997
311.117
311.234
311.349
311.462
311.572
311.678
311.782
311.883
311.98
312.074
312.164
312.251
312.332
312.415
312.486
312.572
312.705
299.372
299.385
299.4
299.414
299.429
299.443
299.458
299.472
299.486
299.5
299.514
299.529
299.543
299.558
299.573
299.588
299.604
299.62
299.636
299.652
299.668
299.685
299.702
299.719
299.736
299.754
299.771
299.789
299.807
299.825
299.843
299.862
299.88
299.899
299.918
299.938
299.957
299.977
299.997
300.018
300.04
300.062
300.084
300.107
300.13
300.153
300.177
300.2
300.224
300.249
300.274
300.3
300.326
300.352
300.38
300.407
300.435
300.463
300.492
300.521
300.551
300.581
300.612
300.643
300.675
300.707
300.74
300.774
300.808
300.842
300.878
300.913
300.95
300.987
301.025
301.063
301.102
301.142
301.182
301.223
301.265
301.308
301.351
301.395
301.44
301.486
301.532
301.579
301.627
301.676
301.726
301.777
301.829
301.882
301.936
301.99
302.046
302.103
302.162
302.221
302.282
302.344
302.408
302.473
302.539
302.607
302.676
302.749
302.826
302.907
302.991
303.078
303.166
303.257
303.349
303.443
303.538
303.635
303.734
303.835
303.938
304.043
304.149
304.257
304.367
304.478
304.592
304.707
304.824
304.943
305.064
305.186
305.31
305.436
305.563
305.692
305.822
305.954
306.087
306.221
306.357
306.493
306.631
306.77
306.91
307.05
307.192
307.334
307.477
307.621
307.764
307.908
308.052
308.195
308.338
308.481
308.623
308.764
308.904
309.043
309.181
309.318
309.454
309.588
309.72
309.85
309.978
310.103
310.226
310.346
310.463
310.577
310.686
310.792
310.894
310.991
311.089
311.174
311.276
311.435
298.97
298.983
298.996
299.01
299.024
299.038
299.053
299.067
299.082
299.096
299.111
299.127
299.142
299.158
299.174
299.19
299.206
299.223
299.24
299.257
299.274
299.292
299.31
299.328
299.347
299.365
299.383
299.402
299.42
299.438
299.457
299.476
299.495
299.514
299.533
299.553
299.573
299.593
299.614
299.634
299.655
299.675
299.696
299.717
299.739
299.76
299.782
299.804
299.826
299.849
299.873
299.897
299.921
299.946
299.971
299.996
300.022
300.048
300.075
300.102
300.13
300.158
300.186
300.215
300.244
300.274
300.304
300.335
300.366
300.398
300.43
300.463
300.497
300.531
300.565
300.6
300.636
300.672
300.708
300.746
300.784
300.822
300.861
300.901
300.941
300.982
301.024
301.067
301.11
301.154
301.198
301.244
301.29
301.336
301.384
301.432
301.482
301.532
301.583
301.635
301.688
301.742
301.797
301.854
301.911
301.97
302.03
302.092
302.158
302.228
302.3
302.373
302.449
302.525
302.603
302.683
302.763
302.846
302.929
303.015
303.101
303.189
303.279
303.37
303.463
303.557
303.653
303.751
303.85
303.951
304.054
304.158
304.264
304.372
304.481
304.592
304.705
304.819
304.935
305.052
305.171
305.292
305.414
305.537
305.662
305.789
305.917
306.047
306.177
306.309
306.442
306.576
306.711
306.847
306.983
307.12
307.256
307.394
307.531
307.668
307.805
307.942
308.079
308.214
308.349
308.483
308.616
308.747
308.876
309.003
309.127
309.248
309.366
309.48
309.591
309.696
309.804
309.898
310.011
310.188
298.675
298.686
298.698
298.71
298.722
298.735
298.748
298.761
298.775
298.789
298.803
298.818
298.833
298.848
298.863
298.879
298.895
298.911
298.928
298.945
298.962
298.979
298.997
299.016
299.034
299.053
299.072
299.091
299.11
299.129
299.148
299.168
299.188
299.208
299.229
299.249
299.27
299.291
299.313
299.334
299.355