/*--------------------------------*- C++ -*----------------------------------*\
| =========                 |                                                 |
| \\      /  F ield         | OpenFOAM: The Open Source CFD Toolbox           |
|  \\    /   O peration     | Version:  2312                                  |
|   \\  /    A nd           | Website:  www.openfoam.com                      |
|    \\/     M anipulation  |                                                 |
\*---------------------------------------------------------------------------*/
FoamFile
{
    version     2.0;
    format      ascii;
    arch        "LSB;label=32;scalar=64";
    class       volVectorField;
    location    "20000";
    object      U;
}
// * * * * * * * * * * * * * * * * * * * * * * * * * * * * * * * * * * * * * //

dimensions      [0 1 -1 0 0 0 0];

internalField   nonuniform List<vector> 
29400
(
(0.290236 3.8738e-17 -0.000640053)
(0.561463 5.05283e-17 -0.00273906)
(0.82044 3.25154e-18 -0.00158105)
(1.0343 1.91667e-18 -0.00158061)
(1.21769 -2.0889e-18 -0.0010878)
(1.36446 -4.06392e-17 -0.000794528)
(1.48131 -3.87633e-17 -0.000516996)
(1.57368 -3.88791e-17 -0.000292387)
(1.64665 -2.90296e-17 -0.000114315)
(1.70453 -1.09965e-17 3.17582e-05)
(1.75064 -4.34561e-17 0.000150273)
(1.78756 -5.79856e-17 0.000251653)
(1.8173 -1.85786e-17 0.000340506)
(1.84139 -6.95326e-18 0.000418802)
(1.86102 -7.17521e-17 0.000487387)
(1.87713 -2.81505e-17 0.000546619)
(1.89042 -8.53943e-17 0.000596554)
(1.90146 -8.34401e-17 0.000637806)
(1.91068 -6.8726e-17 0.000671572)
(1.91841 4.13539e-18 0.000696644)
(1.92493 1.11495e-16 0.000710544)
(1.93044 1.29403e-17 0.000719158)
(1.93514 -3.24972e-17 0.000722334)
(1.93914 -1.13037e-17 0.000718045)
(1.94257 3.33246e-17 0.000706531)
(1.94552 -1.08671e-16 0.000686393)
(1.94806 -1.7705e-16 0.00065861)
(1.95029 -1.29477e-16 0.000617639)
(1.9522 -2.90679e-17 0.000715182)
(1.95383 -9.42789e-17 0.0007907)
(0.615324 1.11918e-16 -0.0741202)
(1.18316 9.15326e-17 -0.0673961)
(1.76048 2.00913e-17 -0.0612398)
(2.25283 -4.36443e-17 -0.0586948)
(2.67816 -8.21857e-17 -0.0545742)
(3.03362 -6.84731e-17 -0.0506787)
(3.32808 -9.094e-17 -0.0469275)
(3.57101 -5.94949e-17 -0.0435436)
(3.7714 -5.25762e-17 -0.0405817)
(3.93717 -7.06101e-17 -0.0380118)
(4.07484 -7.39267e-17 -0.0357882)
(4.18971 -1.50772e-16 -0.0338667)
(4.28603 -1.50515e-16 -0.0322038)
(4.3672 -1.37462e-16 -0.0307612)
(4.43598 -1.01456e-16 -0.0295056)
(4.49454 -8.51171e-17 -0.0284087)
(4.54467 -6.36172e-17 -0.0274466)
(4.58778 -5.08339e-17 -0.0265975)
(4.62503 -6.42951e-17 -0.0258401)
(4.65734 -4.90129e-17 -0.0251613)
(4.68548 -4.37148e-17 -0.0245541)
(4.71006 -3.99222e-17 -0.0240066)
(4.73163 -8.10118e-17 -0.0235104)
(4.7506 -8.71213e-17 -0.0230598)
(4.76733 -8.65424e-17 -0.022651)
(4.78214 -1.11302e-16 -0.0222789)
(4.79528 -1.00304e-16 -0.0219437)
(4.80695 -5.66999e-17 -0.0216414)
(4.81737 -5.85286e-17 -0.0213497)
(4.82667 -7.57071e-17 -0.0212338)
(0.6954 1.80702e-16 -0.184248)
(1.37595 1.20522e-17 -0.16536)
(2.07785 -3.37842e-17 -0.151892)
(2.68098 -8.20345e-17 -0.144321)
(3.20487 -1.08206e-16 -0.135161)
(3.64957 -1.06907e-16 -0.126558)
(4.02495 -8.82989e-17 -0.11829)
(4.34095 -4.61443e-17 -0.110729)
(4.60698 -4.44285e-17 -0.103975)
(4.83138 -1.081e-16 -0.0980043)
(5.02123 -1.31805e-16 -0.092757)
(5.1824 -2.80805e-17 -0.0881582)
(5.31974 3.84071e-17 -0.084133)
(5.43724 -6.27144e-17 -0.0806131)
(5.53816 -8.87044e-17 -0.0775368)
(5.62518 -7.70491e-17 -0.0748489)
(5.70051 -7.56289e-17 -0.0724999)
(5.76597 -8.63311e-17 -0.0704434)
(5.82307 -1.28358e-16 -0.0686336)
(5.87303 -1.28993e-16 -0.0670367)
(5.91689 -1.04877e-16 -0.0656284)
(5.9555 -6.1962e-17 -0.0643825)
(5.98959 -3.00508e-17 -0.0632761)
(6.01978 -2.21603e-17 -0.0622904)
(6.04657 -2.93186e-17 -0.0614104)
(6.0704 -3.30108e-17 -0.0606219)
(6.09165 -2.10417e-17 -0.0599124)
(6.11063 -1.91623e-17 -0.0592775)
(6.12767 -4.10565e-17 -0.0586973)
(6.14298 -4.20246e-17 -0.058125)
(0.692676 2.15209e-16 -0.29633)
(1.40631 -3.04092e-17 -0.268305)
(2.14257 -6.87599e-17 -0.249375)
(2.77694 -1.55505e-16 -0.237678)
(3.32856 -1.42152e-16 -0.22426)
(3.79872 -9.25188e-17 -0.211389)
(4.19803 -1.25667e-16 -0.198951)
(4.53659 -6.53237e-17 -0.187473)
(4.8238 -6.87498e-17 -0.17711)
(5.06798 -1.08903e-16 -0.167857)
(5.2762 -1.50101e-16 -0.159652)
(5.45436 -6.70321e-17 -0.152401)
(5.60735 -6.53743e-17 -0.146001)
(5.7392 -5.11746e-18 -0.140358)
(5.85326 -8.5859e-17 -0.13538)
(5.95228 -1.7122e-16 -0.130986)
(6.03855 -1.80814e-16 -0.127106)
(6.11397 -1.03262e-16 -0.123672)
(6.18011 -5.37536e-17 -0.120619)
(6.23829 -3.24533e-17 -0.117898)
(6.28961 -6.0734e-17 -0.115474)
(6.335 -1.1744e-16 -0.113311)
(6.37524 -1.24911e-16 -0.111375)
(6.41101 -5.39564e-17 -0.109639)
(6.44287 -4.00144e-17 -0.108082)
(6.4713 -2.55386e-17 -0.106683)
(6.49673 -1.26543e-17 -0.10543)
(6.51952 -7.95955e-17 -0.10432)
(6.53999 -5.03346e-17 -0.103334)
(6.55842 -8.01977e-17 -0.102381)
(0.678657 2.34146e-16 -0.408718)
(1.40285 8.63666e-17 -0.372661)
(2.15069 -9.49904e-17 -0.352122)
(2.7963 -1.75714e-16 -0.33672)
(3.35694 -1.32056e-16 -0.319123)
(3.83499 -1.82223e-16 -0.302033)
(4.24172 -1.61752e-16 -0.285496)
(4.58745 -1.17771e-16 -0.270187)
(4.88166 -1.4268e-16 -0.256356)
(5.13269 -1.23222e-16 -0.243971)
(5.34757 -6.42224e-17 -0.232947)
(5.53219 -2.17404e-16 -0.223161)
(5.69137 -2.53248e-16 -0.214479)
(5.82913 -1.9383e-16 -0.206777)
(5.94875 -1.51834e-16 -0.199939)
(6.05297 -1.09871e-16 -0.19386)
(6.14406 -1.04739e-16 -0.188451)
(6.22393 -7.37512e-17 -0.183629)
(6.29415 -6.80474e-17 -0.179311)
(6.35604 -7.07947e-17 -0.175435)
(6.41073 -2.73413e-17 -0.171956)
(6.45917 -4.73136e-17 -0.168829)
(6.50219 -9.25893e-17 -0.166013)
(6.54046 -1.16371e-16 -0.163473)
(6.57458 -7.92577e-17 -0.161179)
(6.60505 -1.0381e-16 -0.159106)
(6.63232 -1.04719e-16 -0.157232)
(6.65677 -7.58628e-17 -0.155547)
(6.67872 -1.11613e-16 -0.154038)
(6.69851 -6.16218e-17 -0.152633)
(0.663933 2.32927e-16 -0.52383)
(1.39072 4.30245e-17 -0.483359)
(2.14123 -1.06831e-16 -0.460252)
(2.78973 -1.17572e-16 -0.440196)
(3.35277 -2.07404e-16 -0.417912)
(3.83296 -1.95773e-16 -0.396209)
(4.24186 -2.13154e-16 -0.375377)
(4.58989 -1.9986e-16 -0.356124)
(4.88655 -1.91777e-16 -0.338648)
(5.14017 -2.25588e-16 -0.32297)
(5.35775 -1.9046e-16 -0.30899)
(5.54513 -1.26104e-16 -0.296555)
(5.7071 -1.05192e-16 -0.285499)
(5.84762 -2.16837e-16 -0.275668)
(5.96994 -1.72888e-16 -0.266919)
(6.07677 -1.19129e-16 -0.259125)
(6.17035 -1.02998e-16 -0.252173)
(6.25256 -1.59921e-16 -0.245965)
(6.32498 -9.92259e-17 -0.240403)
(6.38892 -1.42044e-16 -0.235402)
(6.44551 -7.30599e-17 -0.230901)
(6.49571 -1.03096e-16 -0.226844)
(6.54033 -3.16741e-17 -0.223182)
(6.58008 -4.90213e-17 -0.219871)
(6.61555 -1.2594e-16 -0.216873)
(6.64726 -1.45672e-16 -0.214156)
(6.67565 -2.53115e-16 -0.211694)
(6.70111 -1.62002e-16 -0.209468)
(6.72397 -1.44834e-16 -0.207466)
(6.74453 -2.00542e-16 -0.205647)
(0.650119 1.84664e-16 -0.645145)
(1.37476 -2.96478e-17 -0.600007)
(2.12231 -1.34349e-16 -0.572729)
(2.76892 -1.561e-16 -0.547991)
(3.33051 -1.84936e-16 -0.520941)
(3.80957 -1.7092e-16 -0.494435)
(4.21775 -1.92792e-16 -0.468973)
(4.56541 -1.72815e-16 -0.445409)
(4.86207 -2.20663e-16 -0.424041)
(5.116 -2.30377e-16 -0.404863)
(5.33416 -1.65609e-16 -0.387749)
(5.52233 -1.08913e-16 -0.372515)
(5.68526 -4.83777e-17 -0.358962)
(5.82686 -8.80458e-17 -0.346899)
(5.95035 -1.39143e-16 -0.336153)
(6.05839 -1.88006e-16 -0.326566)
(6.15322 -1.66335e-16 -0.318003)
(6.23667 -1.19644e-16 -0.310335)
(6.31031 -1.88433e-16 -0.303427)
(6.37544 -5.34423e-17 -0.297205)
(6.43319 -5.51542e-17 -0.291618)
(6.48449 -1.1049e-16 -0.286583)
(6.53017 -1.00347e-16 -0.282035)
(6.57091 -1.0296e-16 -0.27792)
(6.60731 -8.32112e-17 -0.274191)
(6.63989 -1.81593e-16 -0.27081)
(6.66909 -1.52825e-16 -0.267744)
(6.6953 -6.15331e-17 -0.264963)
(6.71884 -1.97371e-16 -0.262447)
(6.74004 -1.8948e-16 -0.260157)
(0.636702 1.68832e-16 -0.770895)
(1.35648 5.4043e-17 -0.719398)
(2.09766 -1.40673e-16 -0.688762)
(2.73931 -1.97174e-16 -0.659366)
(3.29679 -2.22092e-16 -0.627437)
(3.77238 -2.21541e-16 -0.596044)
(4.17771 -2.03444e-16 -0.56595)
(4.52311 -2.17012e-16 -0.538109)
(4.81803 -2.52344e-16 -0.512847)
(5.07068 -2.33096e-16 -0.490168)
(5.28795 -1.13351e-16 -0.469926)
(5.47556 -5.36789e-17 -0.451902)
(5.6382 -1.50042e-16 -0.43586)
(5.77973 -1.19568e-16 -0.421575)
(5.90334 -1.38898e-16 -0.408838)
(6.01165 -1.93279e-16 -0.397466)
(6.10684 -1.84219e-16 -0.387296)
(6.19074 -1.40234e-16 -0.378188)
(6.26488 -1.00463e-16 -0.370008)
(6.33057 -1.54773e-16 -0.362642)
(6.3889 -9.75155e-17 -0.355996)
(6.4408 -4.34124e-17 -0.349993)
(6.48708 -1.491e-16 -0.344564)
(6.52841 -1.13445e-16 -0.339646)
(6.56538 -1.7353e-16 -0.335186)
(6.59852 -2.17404e-16 -0.331136)
(6.62825 -6.47963e-17 -0.327456)
(6.65496 -4.33768e-17 -0.324109)
(6.67899 -9.77679e-18 -0.321074)
(6.70066 -5.23729e-17 -0.318327)
(0.623672 1.36828e-16 -0.898161)
(1.33663 2.25252e-17 -0.842255)
(2.06952 -1.57915e-16 -0.808293)
(2.70416 -1.67106e-16 -0.77416)
(3.25563 -2.55901e-16 -0.737243)
(3.72601 -2.16863e-16 -0.700831)
(4.12693 -2.01175e-16 -0.665969)
(4.46865 -2.07939e-16 -0.633723)
(4.76054 -2.40795e-16 -0.604464)
(5.01074 -3.06615e-16 -0.578196)
(5.22606 -2.01539e-16 -0.55475)
(5.41213 -2.19727e-16 -0.53387)
(5.57359 -2.14622e-16 -0.515284)
(5.71424 -1.56042e-16 -0.498728)
(5.8372 -1.37997e-16 -0.483961)
(5.94507 -1.99056e-16 -0.470769)
(6.04 -2.42312e-16 -0.458963)
(6.12377 -1.5649e-16 -0.448377)
(6.19789 -1.39899e-16 -0.438855)
(6.26365 -1.41983e-16 -0.430272)
(6.32212 -2.16734e-16 -0.42253)
(6.37421 -1.29019e-16 -0.415534)
(6.42072 -1.15616e-16 -0.409201)
(6.4623 -6.98694e-17 -0.40346)
(6.49956 -1.16911e-16 -0.398248)
(6.53298 -1.79947e-16 -0.393512)
(6.56301 -1.48002e-16 -0.389201)
(6.59001 -8.12848e-17 -0.385274)
(6.61434 -1.57388e-16 -0.381711)
(6.63629 -6.28516e-17 -0.378496)
(0.611032 1.04404e-16 -1.0285)
(1.31586 -1.09949e-16 -0.968594)
(2.03925 -1.62947e-16 -0.931177)
(2.66551 -1.79385e-16 -0.892201)
(3.20961 -1.75619e-16 -0.850154)
(3.6735 -1.98422e-16 -0.808579)
(4.06885 -2.40534e-16 -0.768815)
(4.40582 -2.14876e-16 -0.732047)
(4.69372 -1.94618e-16 -0.698692)
(4.9406 -1.80215e-16 -0.668754)
(5.15317 -2.34455e-16 -0.642036)
(5.33699 -2.43642e-16 -0.618245)
(5.49661 -2.34147e-16 -0.597069)
(5.63576 -1.38462e-16 -0.578205)
(5.75752 -1.58057e-16 -0.561378)
(5.86444 -1.46979e-16 -0.546343)
(5.95862 -1.30456e-16 -0.532883)
(6.04182 -1.31951e-16 -0.520809)
(6.11552 -1.3107e-16 -0.509949)
(6.18098 -1.31922e-16 -0.500163)
(6.23924 -9.50365e-17 -0.49133)
(6.29121 -1.15945e-16 -0.483345)
(6.33765 -1.19258e-16 -0.476115)
(6.37923 -9.98438e-17 -0.469557)
(6.41652 -1.39996e-16 -0.463601)
(6.45001 -1.23888e-16 -0.458184)
(6.48012 -1.01763e-16 -0.453253)
(6.50723 1.03411e-17 -0.448756)
(6.53168 6.10429e-18 -0.444675)
(6.55376 -7.22151e-17 -0.441001)
(0.59878 6.50993e-17 -1.16203)
(1.29455 -2.36266e-16 -1.0983)
(2.00765 -2.63116e-16 -1.05733)
(2.62462 -2.49123e-16 -1.01338)
(3.16041 -1.54315e-16 -0.966044)
(3.6169 -2.85217e-16 -0.91915)
(4.00581 -2.59622e-16 -0.874344)
(4.33724 -1.62054e-16 -0.832937)
(4.62044 -2.0886e-16 -0.795389)
(4.86335 -1.76792e-16 -0.7617)
(5.0726 -1.84048e-16 -0.731642)
(5.25363 -1.35309e-16 -0.704885)
(5.41092 -1.49455e-16 -0.681072)
(5.54813 -2.3481e-16 -0.659863)
(5.66829 -1.62099e-16 -0.640945)
(5.77387 -1.46425e-16 -0.624041)
(5.86695 -5.02145e-17 -0.608907)
(5.94925 -6.80409e-17 -0.595331)
(6.02222 -7.39537e-17 -0.583121)
(6.08707 -2.30966e-16 -0.572117)
(6.14486 -1.74561e-16 -0.562185)
(6.19645 -1.05828e-16 -0.553204)
(6.24261 -1.39794e-16 -0.54507)
(6.28396 -7.96264e-17 -0.53769)
(6.32108 -1.12942e-16 -0.530986)
(6.35445 -1.03941e-16 -0.524886)
(6.38448 -6.36736e-17 -0.519331)
(6.41155 -8.01699e-17 -0.514263)
(6.43597 -2.13494e-16 -0.509665)
(6.45806 -2.02136e-16 -0.505529)
(0.58682 5.20059e-18 -1.29858)
(1.27285 -3.08792e-16 -1.23135)
(1.97514 -3.9097e-16 -1.18671)
(2.58221 -3.31905e-16 -1.13763)
(3.10903 -2.24203e-16 -1.08483)
(3.55747 -2.27695e-16 -1.03244)
(3.93934 -2.49795e-16 -0.982449)
(4.26468 -1.86721e-16 -0.936281)
(4.54268 -1.7025e-16 -0.894441)
(4.78117 -2.28965e-16 -0.856918)
(4.98668 -1.10292e-16 -0.823453)
(5.16455 -8.40763e-17 -0.793673)
(5.31917 -1.55483e-16 -0.767177)
(5.45413 -1.85923e-16 -0.743583)
(5.57237 -1.56082e-16 -0.722542)
(5.67634 -4.8908e-17 -0.703744)
(5.76806 -5.65516e-17 -0.686915)
(5.84921 -5.3665e-17 -0.671819)
(5.92121 -1.14839e-16 -0.658244)
(5.98526 -1.91847e-16 -0.646013)
(6.04236 -1.0186e-16 -0.634973)
(6.09338 -1.96927e-16 -0.62499)
(6.13906 -1.75616e-16 -0.615948)
(6.18002 -1.62365e-16 -0.607744)
(6.21682 -2.73982e-16 -0.60029)
(6.24991 -1.73423e-16 -0.593509)
(6.27973 -1.5191e-16 -0.58733)
(6.30662 -1.25802e-16 -0.581695)
(6.3309 -5.05838e-17 -0.576583)
(6.35288 -6.81569e-17 -0.571987)
(0.575048 -3.63178e-17 -1.43821)
(1.25085 -2.89221e-16 -1.36773)
(1.94191 -3.71744e-16 -1.31929)
(2.53862 -4.03346e-16 -1.26491)
(3.05599 -2.98626e-16 -1.20644)
(3.49594 -2.6871e-16 -1.14839)
(3.87037 -2.86021e-16 -1.09305)
(4.18927 -2.44628e-16 -1.042)
(4.46173 -2.54648e-16 -0.995762)
(4.69552 -1.63061e-16 -0.954324)
(4.89702 -9.73867e-17 -0.917384)
(5.07149 -1.17899e-16 -0.884525)
(5.22321 -1.64154e-16 -0.855299)
(5.35569 -1.14591e-16 -0.829281)
(5.47183 -1.20685e-16 -0.806083)
(5.57399 -2.20737e-16 -0.785362)
(5.66417 -1.39781e-16 -0.766816)
(5.744 -9.11764e-17 -0.75018)
(5.81486 -1.68448e-16 -0.735226)
(5.87794 -1.16982e-16 -0.721754)
(5.93421 -9.8758e-17 -0.709596)
(5.98452 -7.85337e-17 -0.698603)
(6.02958 -7.34867e-17 -0.688647)
(6.07002 -1.64332e-16 -0.679614)
(6.10636 -2.09831e-16 -0.671408)
(6.13908 -3.30872e-17 -0.663942)
(6.16857 8.87183e-17 -0.65714)
(6.19518 -4.23164e-17 -0.650937)
(6.21923 -1.45578e-18 -0.645311)
(6.241 2.5067e-17 -0.640255)
(0.563382 -6.19814e-17 -1.58096)
(1.22855 -2.45983e-16 -1.50743)
(1.908 -3.59231e-16 -1.45505)
(2.49397 -4.7136e-16 -1.39517)
(3.00154 -3.96412e-16 -1.33083)
(3.43271 -2.81077e-16 -1.26692)
(3.79943 -2.69239e-16 -1.20609)
(4.11166 -2.4936e-16 -1.15002)
(4.37842 -2.4569e-16 -1.09929)
(4.60733 -1.51754e-16 -1.05386)
(4.80467 -1.0757e-16 -1.01337)
(4.97559 -1.32301e-16 -0.977379)
(5.12428 -5.8103e-17 -0.945376)
(5.25417 -1.64741e-16 -0.916893)
(5.36808 -1.48553e-16 -0.891505)
(5.46832 -8.96002e-17 -0.868832)
(5.55684 -1.23811e-16 -0.848543)
(5.63523 -2.31386e-16 -0.830347)
(5.70486 -1.5553e-16 -0.813995)
(5.76685 -1.00723e-16 -0.799268)
(5.82219 -3.13986e-17 -0.785979)
(5.87168 1.80417e-17 -0.773966)
(5.91603 -7.10563e-18 -0.763088)
(5.95585 -1.07516e-18 -0.753221)
(5.99166 -7.31131e-17 -0.744257)
(6.0239 -1.42118e-16 -0.736103)
(6.05298 -7.19574e-17 -0.728676)
(6.07924 -2.60679e-17 -0.721904)
(6.10298 -8.27445e-17 -0.715764)
(6.12447 -8.20515e-17 -0.710245)
(0.551765 -8.20619e-17 -1.72681)
(1.20594 -2.77269e-16 -1.65043)
(1.87343 -2.59394e-16 -1.59395)
(2.44832 -5.34149e-16 -1.52838)
(2.94579 -4.81215e-16 -1.45795)
(3.36794 -3.45994e-16 -1.388)
(3.72681 -1.76789e-16 -1.32152)
(4.03225 -2.34236e-16 -1.26031)
(4.2932 -1.46106e-16 -1.20499)
(4.51716 -1.34483e-16 -1.15547)
(4.71029 -1.57459e-16 -1.11138)
(4.87761 -1.81292e-16 -1.0722)
(5.02321 -1.8305e-16 -1.03737)
(5.15045 -1.57051e-16 -1.00638)
(5.26206 -1.37611e-16 -0.978765)
(5.36033 -6.25232e-17 -0.95411)
(5.44713 -1.07939e-16 -0.932051)
(5.52402 -1.42663e-16 -0.912274)
(5.59234 -1.46846e-16 -0.894503)
(5.65319 -1.3351e-16 -0.878503)
(5.70752 -8.08424e-17 -0.86407)
(5.75614 -1.13949e-16 -0.851025)
(5.79972 -1.09727e-16 -0.839215)
(5.83885 -2.16618e-17 -0.828505)
(5.87406 -5.32838e-17 -0.818777)
(5.90578 -7.49103e-17 -0.809929)
(5.93439 -2.94791e-17 -0.801872)
(5.96024 -7.98514e-17 -0.794528)
(5.98361 -1.31182e-16 -0.787872)
(6.00479 -1.40755e-16 -0.781887)
(0.540164 -1.26994e-16 -1.87576)
(1.183 -3.41336e-16 -1.79671)
(1.83817 -3.23755e-16 -1.73596)
(2.40167 -4.87085e-16 -1.66448)
(2.8888 -5.14405e-16 -1.58775)
(3.30176 -3.836e-16 -1.51158)
(3.65266 -2.03038e-16 -1.43929)
(3.95126 -2.81071e-16 -1.37283)
(4.20637 -1.17474e-16 -1.31282)
(4.42537 -1.06435e-16 -1.25914)
(4.61427 -1.26298e-16 -1.21138)
(4.77798 -6.82787e-17 -1.16895)
(4.9205 -1.53745e-16 -1.13125)
(5.04507 -1.03453e-16 -1.09771)
(5.15439 -1.61924e-16 -1.06784)
(5.25066 -1.51616e-16 -1.04117)
(5.33571 -3.02014e-17 -1.01731)
(5.41109 -4.77571e-17 -0.995928)
(5.47807 -1.40743e-16 -0.976719)
(5.53775 -1.14401e-16 -0.959427)
(5.59105 -4.63588e-17 -0.943833)
(5.63874 -3.94853e-17 -0.929742)
(5.68151 -7.66255e-17 -0.916987)
(5.71993 1.21973e-17 -0.905423)
(5.7545 -1.65625e-17 -0.894923)
(5.78566 -3.89765e-17 -0.885375)
(5.81377 -2.4477e-17 -0.876682)
(5.83917 -1.02533e-16 -0.868762)
(5.86214 -5.80879e-17 -0.861584)
(5.88296 5.96555e-17 -0.855128)
(0.528555 -1.45556e-16 -2.02779)
(1.1597 -3.35163e-16 -1.94623)
(1.80221 -4.73149e-16 -1.88104)
(2.35403 -4.17584e-16 -1.80342)
(2.83059 -4.50459e-16 -1.72018)
(3.23423 -4.21172e-16 -1.63761)
(3.57709 -3.70203e-16 -1.55937)
(3.86883 -3.12807e-16 -1.48754)
(4.11811 -1.86448e-16 -1.42274)
(4.33217 -1.38264e-16 -1.36485)
(4.51688 -5.54112e-17 -1.31335)
(4.67701 -8.47004e-17 -1.26762)
(4.81646 -1.84007e-16 -1.227)
(4.9384 -1.47271e-16 -1.19088)
(5.04544 -1.5451e-16 -1.15871)
(5.13972 -1.22683e-16 -1.12999)
(5.22304 -6.13506e-17 -1.10431)
(5.2969 -1.03431e-16 -1.08129)
(5.36254 -8.90233e-17 -1.06062)
(5.42104 -7.32711e-17 -1.04202)
(5.47329 -8.15086e-18 -1.02524)
(5.52006 5.33626e-18 -1.01009)
(5.562 -1.01908e-18 -0.996379)
(5.59969 8.96555e-18 -0.983949)
(5.6336 -2.08212e-17 -0.972665)
(5.66417 -8.63412e-17 -0.962408)
(5.69176 -1.58962e-16 -0.953072)
(5.71669 -9.0792e-17 -0.944568)
(5.73924 -1.28548e-16 -0.936863)
(5.75969 -1.2768e-16 -0.92993)
(0.516926 -1.92999e-16 -2.18287)
(1.13604 -2.73055e-16 -2.09893)
(1.76555 -4.56145e-16 -2.02911)
(2.30542 -3.75064e-16 -1.94515)
(2.77121 -3.33063e-16 -1.85518)
(3.16543 -3.95732e-16 -1.76603)
(3.50021 -4.31716e-16 -1.68171)
(3.78508 -3.09761e-16 -1.60441)
(4.02857 -2.3231e-16 -1.53475)
(4.23774 -1.55326e-16 -1.47255)
(4.4183 -5.62006e-17 -1.41727)
(4.5749 -1.8295e-16 -1.36819)
(4.71133 -1.62995e-16 -1.32461)
(4.83067 -8.44914e-17 -1.28587)
(4.93546 -4.68453e-17 -1.25136)
(5.02778 -1.6618e-16 -1.22057)
(5.10939 -2.05173e-16 -1.19303)
(5.18174 -7.11916e-17 -1.16836)
(5.24606 -9.92792e-17 -1.1462)
(5.30339 -9.92627e-17 -1.12626)
(5.35459 -3.22687e-17 -1.10829)
(5.40044 -8.87562e-17 -1.09206)
(5.44155 -1.28864e-17 -1.07737)
(5.4785 -7.96831e-18 -1.06406)
(5.51175 -2.61673e-17 -1.05198)
(5.54173 -2.0776e-16 -1.04101)
(5.56878 -1.06044e-16 -1.03102)
(5.59324 -1.30311e-16 -1.02192)
(5.61536 -6.849e-17 -1.01368)
(5.63542 7.22504e-18 -1.00627)
(0.505263 -2.53239e-16 -2.34095)
(1.11201 -2.44758e-16 -2.25477)
(1.72819 -5.05144e-16 -2.18011)
(2.25585 -4.37262e-16 -2.08957)
(2.71072 -3.1469e-16 -1.99268)
(3.09543 -4.17242e-16 -1.89679)
(3.42211 -3.29956e-16 -1.80626)
(3.70015 -2.20493e-16 -1.72339)
(3.93788 -2.5949e-16 -1.64879)
(4.14221 -1.60826e-16 -1.58224)
(4.31868 -8.0145e-17 -1.52312)
(4.47181 -7.75678e-17 -1.47065)
(4.60527 -6.51239e-17 -1.42407)
(4.72205 -4.63142e-17 -1.38267)
(4.82463 -9.64393e-17 -1.34579)
(4.91503 -1.00278e-16 -1.31289)
(4.99495 -1.14166e-16 -1.28347)
(5.06583 -1.01372e-16 -1.25711)
(5.12884 -1.27755e-16 -1.23344)
(5.18501 -1.17888e-16 -1.21215)
(5.23518 -4.55828e-17 -1.19296)
(5.28011 -6.09819e-18 -1.17563)
(5.3204 -6.92267e-17 -1.15996)
(5.35661 -1.77058e-18 -1.14575)
(5.38921 -2.07699e-18 -1.13287)
(5.41859 -5.90328e-18 -1.12116)
(5.44511 -1.08074e-16 -1.11051)
(5.46908 -3.12452e-17 -1.10081)
(5.49077 1.52907e-17 -1.09203)
(5.51044 1.90369e-17 -1.08412)
(0.493556 -3.06209e-16 -2.50199)
(1.0876 -3.23008e-16 -2.41365)
(1.69013 -4.07199e-16 -2.33396)
(2.20536 -5.02103e-16 -2.23662)
(2.64917 -3.17704e-16 -2.13261)
(3.02431 -5.08201e-16 -2.02982)
(3.3429 -2.36215e-16 -1.93297)
(3.61412 -2.20283e-16 -1.84445)
(3.84616 -2.5839e-16 -1.76485)
(4.0457 -1.24124e-16 -1.6939)
(4.21814 -1.14523e-16 -1.63088)
(4.36785 -9.21356e-17 -1.57498)
(4.49839 -1.29115e-16 -1.52537)
(4.61267 -9.16278e-17 -1.48126)
(4.71307 -8.46323e-17 -1.44199)
(4.80159 4.61675e-17 -1.40695)
(4.87986 -2.00248e-17 -1.37562)
(4.94928 -1.32156e-16 -1.34755)
(5.01101 -3.37565e-17 -1.32235)
(5.06604 -8.09047e-17 -1.29968)
(5.1152 -9.25561e-17 -1.27925)
(5.15922 -6.0313e-17 -1.2608)
(5.1987 -1.04511e-16 -1.24412)
(5.23419 -9.97295e-17 -1.22901)
(5.26612 -3.66082e-17 -1.2153)
(5.29492 -7.81599e-17 -1.20285)
(5.32091 -8.39241e-17 -1.19152)
(5.3444 -6.95764e-17 -1.18121)
(5.36566 7.1499e-17 -1.17188)
(5.38492 -1.76144e-17 -1.16346)
(0.481793 -3.56718e-16 -2.6659)
(1.06281 -4.04276e-16 -2.5755)
(1.6514 -5.04443e-16 -2.49056)
(2.154 -4.17295e-16 -2.38621)
(2.58662 -3.96448e-16 -2.27488)
(2.95216 -4.05618e-16 -2.16505)
(3.26266 -2.41482e-16 -2.06179)
(3.52713 -2.65993e-16 -1.96754)
(3.75352 -3.01901e-16 -1.88289)
(3.94834 -1.60078e-16 -1.80748)
(4.11681 -2.55488e-16 -1.74054)
(4.26315 -1.38241e-16 -1.68117)
(4.39083 -1.19595e-16 -1.62848)
(4.50264 -9.92057e-17 -1.58165)
(4.60091 -1.90493e-17 -1.53995)
(4.68757 9.49898e-18 -1.50274)
(4.76422 2.60157e-17 -1.46947)
(4.83221 -3.31155e-17 -1.43967)
(4.89268 -5.20928e-17 -1.41291)
(4.94658 -1.40275e-16 -1.38884)
(4.99475 -4.43044e-17 -1.36715)
(5.03787 -5.5739e-17 -1.34757)
(5.07656 -7.67689e-17 -1.32986)
(5.11132 -8.50067e-17 -1.31382)
(5.14261 -4.74127e-17 -1.29927)
(5.17082 -9.66752e-17 -1.28606)
(5.19628 -1.44216e-16 -1.27405)
(5.2193 -9.83767e-17 -1.26312)
(5.24012 -7.02683e-17 -1.25322)
(5.259 -5.55008e-18 -1.2443)
(0.469967 -3.86281e-16 -2.83261)
(1.03764 -5.86555e-16 -2.7402)
(1.61201 -6.5903e-16 -2.64981)
(2.10182 -4.82668e-16 -2.53822)
(2.52316 -5.11206e-16 -2.41941)
(2.87908 -3.78467e-16 -2.30242)
(3.18152 -3.73072e-16 -2.19266)
(3.43928 -3.06627e-16 -2.09262)
(3.66009 -2.97406e-16 -2.00286)
(3.85024 -1.66927e-16 -1.92296)
(4.01479 -1.39646e-16 -1.85206)
(4.15783 -2.35182e-16 -1.78919)
(4.28267 -1.66973e-16 -1.73339)
(4.39206 -7.3795e-17 -1.68381)
(4.48823 -1.7814e-17 -1.63965)
(4.57307 3.58327e-17 -1.60024)
(4.64812 -1.00276e-17 -1.56501)
(4.7147 -9.17638e-17 -1.53344)
(4.77393 -1.07317e-16 -1.5051)
(4.82673 -2.02538e-16 -1.47961)
(4.87391 -7.16439e-17 -1.45664)
(4.91615 -4.34831e-19 -1.4359)
(4.95405 -8.64153e-17 -1.41715)
(4.9881 -6.46987e-17 -1.40017)
(5.01875 -1.06241e-16 -1.38477)
(5.04638 -8.71822e-17 -1.37079)
(5.07132 -1.68392e-16 -1.35808)
(5.09386 -9.34061e-17 -1.34651)
(5.11425 -5.79277e-17 -1.33604)
(5.13274 -4.07412e-17 -1.32659)
(0.458069 -4.27538e-16 -3.00202)
(1.01211 -7.51878e-16 -2.90765)
(1.572 -7.08676e-16 -2.8116)
(2.04886 -5.24351e-16 -2.69257)
(2.45887 -4.52897e-16 -2.5661)
(2.80516 -4.0027e-16 -2.44184)
(3.09959 -4.20487e-16 -2.3255)
(3.35068 -2.96743e-16 -2.21963)
(3.56597 -2.73331e-16 -2.12473)
(3.75152 -1.53838e-16 -2.0403)
(3.9122 -9.26861e-17 -1.96541)
(4.05197 -2.04714e-16 -1.89901)
(4.17403 -1.40862e-16 -1.84008)
(4.28102 3.78257e-17 -1.78771)
(4.37513 -3.12911e-17 -1.74107)
(4.45816 -3.01025e-17 -1.69944)
(4.53164 -7.87847e-17 -1.66222)
(4.59684 -1.69312e-16 -1.62887)
(4.65483 -1.17081e-16 -1.59892)
(4.70654 -9.09511e-17 -1.57199)
(4.75275 -9.61273e-17 -1.54771)
(4.79412 -1.14994e-16 -1.5258)
(4.83123 -1.94242e-16 -1.50599)
(4.86458 -1.019e-16 -1.48805)
(4.89459 -1.33027e-16 -1.47178)
(4.92165 -3.00391e-16 -1.45701)
(4.94606 -1.81809e-16 -1.44359)
(4.96813 -1.35088e-16 -1.43138)
(4.9881 -1.77245e-16 -1.42032)
(5.00619 -7.72196e-17 -1.41034)
(0.446096 -4.79606e-16 -3.17402)
(0.98621 -7.99106e-16 -3.07771)
(1.5314 -8.15783e-16 -2.97578)
(1.9952 -5.258e-16 -2.84912)
(2.39382 -4.39138e-16 -2.71485)
(2.73051 -2.73161e-16 -2.58323)
(3.01696 -4.34925e-16 -2.46025)
(3.26146 -2.77099e-16 -2.34851)
(3.47128 -1.48275e-16 -2.24844)
(3.65228 -9.92308e-17 -2.15946)
(3.80914 -7.07523e-17 -2.08055)
(3.94568 -1.16094e-16 -2.0106)
(4.06499 -1.77783e-17 -1.94852)
(4.16962 2.64983e-17 -1.89334)
(4.26168 -7.23476e-17 -1.84418)
(4.34293 -8.42464e-17 -1.80031)
(4.41485 -1.24153e-16 -1.76108)
(4.47867 -8.94489e-17 -1.72592)
(4.53545 -9.24267e-17 -1.69435)
(4.58608 -1.53922e-16 -1.66594)
(4.63132 -1.09048e-16 -1.64035)
(4.67183 -1.1667e-16 -1.61724)
(4.70816 -1.40103e-16 -1.59635)
(4.74081 -6.87399e-17 -1.57743)
(4.77019 -1.55698e-16 -1.56028)
(4.79667 -1.89111e-16 -1.54471)
(4.82057 -1.40188e-16 -1.53055)
(4.84216 -1.37806e-16 -1.51768)
(4.8617 -5.91771e-17 -1.50603)
(4.8794 -6.97817e-17 -1.4955)
(0.434044 -5.373e-16 -3.34847)
(0.959975 -8.53807e-16 -3.25025)
(1.49026 -6.10886e-16 -3.14224)
(1.9409 -5.69799e-16 -3.00775)
(2.32812 -4.56013e-16 -2.86555)
(2.65524 -2.4094e-16 -2.72649)
(2.93377 -4.15316e-16 -2.59684)
(3.17172 -2.90181e-16 -2.4792)
(3.37614 -2.40135e-16 -2.37394)
(3.55263 -1.95065e-16 -2.28039)
(3.70572 -5.46857e-17 -2.19745)
(3.83906 -7.76195e-17 -2.12393)
(3.95564 -2.09334e-17 -2.05867)
(4.05793 -2.77403e-17 -2.00065)
(4.14796 7.96384e-18 -1.94896)
(4.22745 -7.17459e-17 -1.90283)
(4.29782 -2.71815e-17 -1.86155)
(4.36027 -5.93512e-17 -1.82456)
(4.41584 -1.53604e-16 -1.79134)
(4.4654 -3.21022e-17 -1.76145)
(4.50968 -2.90235e-17 -1.73451)
(4.54932 -2.08928e-16 -1.71019)
(4.58488 -2.26944e-16 -1.6882)
(4.61683 -2.16152e-16 -1.66829)
(4.64557 -1.81708e-16 -1.65023)
(4.67148 -1.78952e-16 -1.63384)
(4.69486 -9.78318e-17 -1.61895)
(4.71598 -2.2635e-17 -1.60541)
(4.73509 5.39665e-17 -1.59314)
(4.75241 -1.01378e-16 -1.58206)
(0.421913 -5.83268e-16 -3.52524)
(0.933422 -1.01804e-15 -3.42509)
(1.44862 -4.61464e-16 -3.31081)
(1.88604 -4.14224e-16 -3.16834)
(2.26186 -3.00326e-16 -3.01809)
(2.57945 -2.92805e-16 -2.87153)
(2.85011 -4.21263e-16 -2.73517)
(3.08159 -3.71733e-16 -2.61162)
(3.28064 -2.5402e-16 -2.50117)
(3.45268 -1.4319e-16 -2.40304)
(3.60202 -4.11162e-17 -2.31606)
(3.73219 6.7631e-18 -2.23894)
(3.84607 -2.98829e-17 -2.17048)
(3.94603 -3.73037e-17 -2.10961)
(4.03405 7.64111e-19 -2.05537)
(4.11178 -8.59282e-17 -2.00694)
(4.18061 -1.37109e-16 -1.96361)
(4.24171 -1.45601e-16 -1.92476)
(4.29607 -2.1635e-16 -1.88987)
(4.34455 -1.85576e-16 -1.85847)
(4.38787 -9.32693e-17 -1.83017)
(4.42665 -1.60839e-16 -1.80462)
(4.46143 -1.53977e-16 -1.78151)
(4.49268 -1.15843e-16 -1.76058)
(4.52079 -7.30329e-17 -1.74161)
(4.54612 -4.28622e-17 -1.72438)
(4.56898 -1.72863e-16 -1.70873)
(4.58963 -2.06185e-16 -1.6945)
(4.60831 -2.06306e-16 -1.68162)
(4.62523 -1.02539e-16 -1.66997)
(0.409706 -6.09991e-16 -3.70416)
(0.906577 -8.73816e-16 -3.60208)
(1.40654 -6.29455e-16 -3.48134)
(1.83071 -3.30859e-16 -3.33073)
(2.19514 -3.10114e-16 -3.17235)
(2.50325 -3.89348e-16 -3.01825)
(2.76612 -2.73704e-16 -2.87517)
(2.99117 -2.85933e-16 -2.74571)
(3.18491 -2.62023e-16 -2.63006)
(3.35253 -8.1125e-17 -2.52735)
(3.49815 -5.17593e-17 -2.43631)
(3.62517 1.55389e-17 -2.35558)
(3.73636 1.50203e-17 -2.28392)
(3.83401 -2.54433e-17 -2.22017)
(3.92002 -4.86741e-17 -2.16336)
(3.996 -1.15808e-16 -2.11262)
(4.06328 -1.9465e-16 -2.06721)
(4.12302 -1.01002e-16 -2.02649)
(4.17618 -8.96502e-17 -1.9899)
(4.22358 -1.33648e-16 -1.95697)
(4.26594 -1.94616e-16 -1.92728)
(4.30385 -2.81021e-16 -1.90047)
(4.33785 -1.16236e-16 -1.87623)
(4.3684 -1.30486e-16 -1.85427)
(4.39587 -1.47481e-16 -1.83436)
(4.42063 -2.24402e-16 -1.81629)
(4.44296 -1.74224e-16 -1.79986)
(4.46313 -1.13074e-16 -1.78493)
(4.48137 -2.87427e-16 -1.77141)
(4.4979 -2.00848e-16 -1.75918)
(0.397427 -6.58759e-16 -3.88507)
(0.879472 -6.84468e-16 -3.78102)
(1.36408 -6.15405e-16 -3.65366)
(1.77499 -3.16542e-16 -3.49478)
(2.12806 -3.27228e-16 -3.32819)
(2.42677 -3.92916e-16 -3.16653)
(2.68189 -1.5956e-16 -3.01674)
(2.90057 -1.23984e-16 -2.88137)
(3.08905 -1.9153e-16 -2.76053)
(3.25227 -2.27346e-17 -2.65324)
(3.39421 -1.30814e-16 -2.55814)
(3.5181 -1.48992e-17 -2.4738)
(3.6266 1.16919e-16 -2.39891)
(3.72194 4.99672e-18 -2.33228)
(3.80594 -1.33546e-16 -2.27288)
(3.88017 -1.15853e-16 -2.2198)
(3.94591 -1.65153e-16 -2.17229)
(4.00428 -1.41965e-16 -2.12967)
(4.05623 -7.00198e-17 -2.09137)
(4.10255 -1.37631e-16 -2.05689)
(4.14393 -1.67636e-16 -2.0258)
(4.18098 -1.18945e-16 -1.99771)
(4.21419 -1.6548e-16 -1.97231)
(4.24403 -1.0395e-16 -1.94931)
(4.27086 -1.19233e-16 -1.92844)
(4.29503 -2.70602e-16 -1.9095)
(4.31683 -3.03379e-16 -1.89229)
(4.33652 -1.90976e-16 -1.87664)
(4.35432 -2.23772e-16 -1.86247)
(4.37044 -1.12967e-16 -1.84965)
(0.385083 -7.317e-16 -4.06776)
(0.852143 -7.92649e-16 -3.96172)
(1.32131 -3.97068e-16 -3.82758)
(1.71896 -2.9709e-16 -3.66033)
(2.06074 -4.1913e-16 -3.48549)
(2.35011 -2.79953e-16 -3.31626)
(2.59756 -2.25068e-16 -3.15977)
(2.80992 -1.41129e-16 -3.01852)
(2.99318 -1.27031e-16 -2.8925)
(3.15203 1.15078e-17 -2.78064)
(3.29028 -5.15851e-17 -2.68148)
(3.41104 2.18352e-17 -2.59353)
(3.51687 9.85265e-18 -2.5154)
(3.60989 -1.4029e-16 -2.44587)
(3.69189 -2.01466e-16 -2.38386)
(3.76435 -2.00375e-16 -2.32843)
(3.82855 -1.0509e-16 -2.2788)
(3.88555 -5.33095e-17 -2.23426)
(3.93627 -3.86451e-17 -2.19423)
(3.9815 -1.22396e-16 -2.15817)
(4.02191 -2.39414e-16 -2.12565)
(4.05807 -2.33722e-16 -2.09628)
(4.0905 -2.01117e-16 -2.0697)
(4.11961 -1.70318e-16 -2.04562)
(4.14579 -1.56025e-16 -2.02379)
(4.16937 -1.87256e-16 -2.00396)
(4.19063 -1.80596e-16 -1.98594)
(4.20983 -1.79426e-16 -1.96957)
(4.22718 -1.13358e-16 -1.95473)
(4.2429 -1.1094e-16 -1.9413)
(0.372686 -7.8516e-16 -4.25205)
(0.824631 -8.57663e-16 -4.14398)
(1.2783 -4.14648e-16 -4.00293)
(1.66273 -4.82642e-16 -3.82723)
(1.99328 -5.67526e-16 -3.64409)
(2.27339 -3.42925e-16 -3.46731)
(2.51324 -1.93568e-16 -3.30416)
(2.71933 -2.41788e-16 -3.15705)
(2.89738 -1.68695e-16 -3.02588)
(3.05189 -1.11835e-16 -2.90946)
(3.18647 -3.55678e-17 -2.80625)
(3.30411 -4.85111e-17 -2.71468)
(3.40726 -7.75752e-17 -2.63331)
(3.49796 -1.47024e-16 -2.56087)
(3.57794 -2.55665e-16 -2.49623)
(3.64863 -3.11981e-16 -2.43844)
(3.71126 -1.57659e-16 -2.38667)
(3.76688 -3.29592e-17 -2.34019)
(3.81637 -1.00706e-16 -2.2984)
(3.8605 -1.56089e-16 -2.26075)
(3.89992 -3.13224e-16 -2.22679)
(3.93519 -2.76967e-16 -2.19609)
(3.9668 -2.56511e-16 -2.16832)
(3.99519 -1.98353e-16 -2.14315)
(4.0207 -1.62487e-16 -2.12033)
(4.04368 -1.74973e-16 -2.0996)
(4.0644 -1.43345e-16 -2.08076)
(4.08309 -1.81897e-16 -2.06364)
(4.09999 -8.68312e-17 -2.04812)
(4.11529 -1.01382e-16 -2.03407)
(0.360246 -8.38959e-16 -4.43771)