/*--------------------------------*- C++ -*----------------------------------*\
| =========                 |                                                 |
| \\      /  F ield         | OpenFOAM: The Open Source CFD Toolbox           |
|  \\    /   O peration     | Version:  2312                                  |
|   \\  /    A nd           | Website:  www.openfoam.com                      |
|    \\/     M anipulation  |                                                 |
\*---------------------------------------------------------------------------*/
FoamFile
{
    version     2.0;
    format      ascii;
    arch        "LSB;label=32;scalar=64";
    class       volScalarField;
    location    "0";
    object      yPlus;
}
// * * * * * * * * * * * * * * * * * * * * * * * * * * * * * * * * * * * * * //

dimensions      [0 0 0 0 0 0 0];

internalField   uniform 0;

boundaryField
{
    BACK
    {
        type            wedge;
    }
    IN
    {
        type            calculated;
        value           uniform 0;
    }
    UPPER
    {
        type            calculated;
        value           uniform 0;
    }
    PLANE
    {
        type            calculated;
        value           nonuniform List<scalar> 
210
(
0.930494
1.2942
1.56445
1.75655
1.90592
2.01752
2.10213
2.16668
2.21635
2.25496
2.28526
2.30923
2.32836
2.34374
2.3562
2.36638
2.37474
2.38167
2.38743
2.39226
2.39632
2.39975
2.40267
2.40515
2.40727
2.4091
2.41067
2.41205
2.41323
2.41424
2.41541
2.41678
2.41806
2.4193
2.4205
2.42168
2.42283
2.42392
2.42493
2.42587
2.42669
2.42741
2.428
2.42845
2.42875
2.42891
2.42892
2.42878
2.42847
2.42799
2.42733
2.42648
2.42544
2.42421
2.42278
2.42116
2.41936
2.41733
2.41507
2.41256
2.40979
2.40675
2.40343
2.39983
2.39595
2.39179
2.38735
2.38262
2.37763
2.37236
2.36682
2.361
2.3549
2.34849
2.34178
2.33476
2.32741
2.31976
2.31179
2.30352
2.29495
2.28604
2.27682
2.26727
2.2574
2.24721
2.23669
2.22584
2.21466
2.20314
2.19129
2.17912
2.16661
2.15377
2.1406
2.1271
2.11329
2.09916
2.08473
2.06996
2.05487
2.03947
2.02379
2.00781
1.99154
1.97498
1.95814
1.94105
1.92369
1.90608
1.88823
1.87014
1.85184
1.83331
1.81457
1.79563
1.77654
1.75731
1.73792
1.7184
1.69874
1.67898
1.65913
1.63918
1.61915
1.59905
1.57888
1.55865
1.53838
1.51807
1.49774
1.47736
1.45698
1.43658
1.41617
1.39575
1.37536
1.35505
1.33368
1.31126
1.28891
1.26668
1.24468
1.22291
1.20142
1.1802
1.15925
1.13859
1.11821
1.09811
1.0783
1.05877
1.03953
1.02058
1.00192
0.983552
0.96547
0.947675
0.930161
0.912923
0.895976
0.879305
0.862917
0.846798
0.83096
0.8154
0.800118
0.78511
0.770376
0.755905
0.741702
0.727763
0.714079
0.700647
0.687458
0.674518
0.661818
0.649352
0.637128
0.625141
0.613389
0.601876
0.590599
0.579558
0.568751
0.558173
0.547829
0.537715
0.527835
0.518182
0.508763
0.499581
0.490636
0.48194
0.473493
0.465314
0.457401
0.449784
0.44245
0.435453
0.428761
0.422455
0.416476
0.410909
0.405746
0.400787
0.396712
0.391106
0.389807
0.377045
)
;
    }
    AXIS
    {
        type            empty;
    }
    FRONT
    {
        type            wedge;
    }
    FRONT2
    {
        type            wedge;
    }
    BACK2
    {
        type            wedge;
    }
    OUT
    {
        type            calculated;
        value           uniform 0;
    }
}


// ************************************************************************* //
