/*--------------------------------*- C++ -*----------------------------------*\
| =========                 |                                                 |
| \\      /  F ield         | OpenFOAM: The Open Source CFD Toolbox           |
|  \\    /   O peration     | Version:  2312                                  |
|   \\  /    A nd           | Website:  www.openfoam.com                      |
|    \\/     M anipulation  |                                                 |
\*---------------------------------------------------------------------------*/
FoamFile
{
    version     2.0;
    format      ascii;
    arch        "LSB;label=32;scalar=64";
    class       volScalarField;
    location    "20000";
    object      alphat;
}
// * * * * * * * * * * * * * * * * * * * * * * * * * * * * * * * * * * * * * //

dimensions      [0 2 -1 0 0 0 0];

internalField   nonuniform List<scalar> 
29400
(
2.15882e-09
3.80986e-09
4.45971e-09
4.76387e-09
5.02946e-09
5.25428e-09
5.42622e-09
5.54447e-09
5.6257e-09
5.68303e-09
5.72421e-09
5.7541e-09
5.77588e-09
5.79183e-09
5.80354e-09
5.81219e-09
5.8186e-09
5.82346e-09
5.82712e-09
5.82966e-09
5.83113e-09
5.83168e-09
5.83151e-09
5.83083e-09
5.82979e-09
5.82851e-09
5.8271e-09
5.82568e-09
5.82402e-09
5.82246e-09
6.6018e-08
8.37445e-08
9.67651e-08
1.01426e-07
1.04875e-07
1.07929e-07
1.10152e-07
1.11522e-07
1.1241e-07
1.13066e-07
1.13607e-07
1.14088e-07
1.14534e-07
1.14956e-07
1.15358e-07
1.15742e-07
1.16109e-07
1.16461e-07
1.16795e-07
1.17104e-07
1.17382e-07
1.17632e-07
1.17854e-07
1.18052e-07
1.1823e-07
1.1839e-07
1.18534e-07
1.18666e-07
1.18782e-07
1.1889e-07
5.696e-07
6.18897e-07
6.55568e-07
6.75777e-07
6.90782e-07
7.02915e-07
7.09185e-07
7.10304e-07
7.09226e-07
7.07418e-07
7.05518e-07
7.03797e-07
7.02352e-07
7.01203e-07
7.00334e-07
6.99718e-07
6.99313e-07
6.99107e-07
6.99015e-07
6.98948e-07
6.9887e-07
6.98786e-07
6.98703e-07
6.98626e-07
6.98559e-07
6.98506e-07
6.98468e-07
6.98445e-07
6.9843e-07
6.984e-07
2.70382e-06
2.64881e-06
2.58597e-06
2.55491e-06
2.54361e-06
2.53431e-06
2.51893e-06
2.49716e-06
2.47267e-06
2.44822e-06
2.42517e-06
2.4041e-06
2.38515e-06
2.36829e-06
2.3534e-06
2.34032e-06
2.32888e-06
2.319e-06
2.30995e-06
2.30137e-06
2.29339e-06
2.28612e-06
2.27948e-06
2.27347e-06
2.26803e-06
2.26315e-06
2.25879e-06
2.25488e-06
2.2514e-06
2.24811e-06
8.96709e-06
8.12826e-06
7.32904e-06
6.94335e-06
6.75389e-06
6.61955e-06
6.49993e-06
6.38887e-06
6.28699e-06
6.19423e-06
6.10992e-06
6.0334e-06
5.96408e-06
5.9015e-06
5.84525e-06
5.79492e-06
5.75007e-06
5.71031e-06
5.67507e-06
5.64376e-06
5.61592e-06
5.5912e-06
5.55217e-06
5.51355e-06
5.47978e-06
5.45023e-06
5.42434e-06
5.40161e-06
5.38166e-06
5.36544e-06
2.20706e-05
1.88618e-05
1.50467e-05
1.34791e-05
1.28816e-05
1.24956e-05
1.21784e-05
1.19024e-05
1.165e-05
1.1412e-05
1.11867e-05
1.09769e-05
1.07866e-05
1.06188e-05
1.04751e-05
1.03554e-05
1.0258e-05
1.01809e-05
1.01213e-05
1.00764e-05
1.00436e-05
1.00206e-05
1.00055e-05
9.99647e-06
9.99219e-06
9.99147e-06
9.9934e-06
9.99728e-06
1.00025e-05
1.00216e-05
4.15987e-05
2.69174e-05
1.73991e-05
1.55881e-05
1.4955e-05
1.46034e-05
1.43402e-05
1.41609e-05
1.40235e-05
1.3902e-05
1.37872e-05
1.36793e-05
1.35828e-05
1.35029e-05
1.34432e-05
1.34054e-05
1.33896e-05
1.3394e-05
1.34161e-05
1.34531e-05
1.35018e-05
1.35593e-05
1.36231e-05
1.3691e-05
1.37611e-05
1.38318e-05
1.39021e-05
1.39708e-05
1.40374e-05
1.41343e-05
4.92288e-05
3.0115e-05
1.96964e-05
1.75901e-05
1.68157e-05
1.64241e-05
1.61973e-05
1.60801e-05
1.60137e-05
1.59642e-05
1.5918e-05
1.58736e-05
1.58357e-05
1.58103e-05
1.58023e-05
1.58148e-05
1.58485e-05
1.59025e-05
1.59746e-05
1.60619e-05
1.61615e-05
1.62701e-05
1.6385e-05
1.65036e-05
1.66236e-05
1.67429e-05
1.68603e-05
1.69745e-05
1.70849e-05
1.72361e-05
5.25026e-05
3.28258e-05
2.17222e-05
1.94626e-05
1.86224e-05
1.82775e-05
1.81788e-05
1.82061e-05
1.82861e-05
1.83774e-05
1.84621e-05
1.85373e-05
1.86075e-05
1.868e-05
1.87616e-05
1.88569e-05
1.89679e-05
1.90948e-05
1.9236e-05
1.93892e-05
1.95515e-05
1.972e-05
1.9892e-05
2.00657e-05
2.02378e-05
2.0406e-05
2.05692e-05
2.07263e-05
2.08769e-05
2.10769e-05
5.57228e-05
3.52347e-05
2.34155e-05
2.10729e-05
2.02629e-05
2.00562e-05
2.01461e-05
2.03797e-05
2.06672e-05
2.09581e-05
2.12293e-05
2.14759e-05
2.17029e-05
2.19188e-05
2.21324e-05
2.23502e-05
2.25761e-05
2.28113e-05
2.30553e-05
2.33063e-05
2.35618e-05
2.38189e-05
2.40749e-05
2.43273e-05
2.4574e-05
2.48133e-05
2.50438e-05
2.52646e-05
2.5475e-05
2.57439e-05
5.82236e-05
3.72518e-05
2.48695e-05
2.25058e-05
2.18243e-05
2.1827e-05
2.21633e-05
2.26593e-05
2.32102e-05
2.37552e-05
2.42652e-05
2.47327e-05
2.51623e-05
2.5564e-05
2.5949e-05
2.63262e-05
2.67014e-05
2.70777e-05
2.74554e-05
2.78332e-05
2.82091e-05
2.85805e-05
2.89447e-05
2.92994e-05
2.96426e-05
2.99727e-05
3.02885e-05
3.05893e-05
3.08745e-05
3.1228e-05
6.0225e-05
3.90198e-05
2.62112e-05
2.38761e-05
2.33761e-05
2.36334e-05
2.42636e-05
2.50712e-05
2.59353e-05
2.67835e-05
2.75794e-05
2.83114e-05
2.89836e-05
2.96078e-05
3.0198e-05
3.07659e-05
3.13199e-05
3.18644e-05
3.24009e-05
3.29292e-05
3.34473e-05
3.3953e-05
3.4444e-05
3.4918e-05
3.53733e-05
3.58085e-05
3.62228e-05
3.66155e-05
3.69865e-05
3.74367e-05
6.20033e-05
4.06719e-05
2.75215e-05
2.52502e-05
2.4966e-05
2.55178e-05
2.64877e-05
2.76566e-05
2.88855e-05
3.00879e-05
3.12182e-05
3.22595e-05
3.3215e-05
3.40989e-05
3.49288e-05
3.57195e-05
3.64815e-05
3.72211e-05
3.79412e-05
3.86421e-05
3.93227e-05
3.9981e-05
4.06152e-05
4.12237e-05
4.18049e-05
4.2358e-05
4.28824e-05
4.33778e-05
4.38442e-05
4.44019e-05
6.36387e-05
4.22836e-05
2.88476e-05
2.66634e-05
2.66234e-05
2.75094e-05
2.88673e-05
3.04505e-05
3.20996e-05
3.3711e-05
3.52274e-05
3.66249e-05
3.79065e-05
3.90903e-05
4.0197e-05
4.12442e-05
4.22446e-05
4.32065e-05
4.41345e-05
4.50295e-05
4.58911e-05
4.67188e-05
4.75116e-05
4.82685e-05
4.89885e-05
4.96711e-05
5.0316e-05
5.09232e-05
5.14934e-05
5.21683e-05
6.51789e-05
4.39016e-05
3.02135e-05
2.81336e-05
2.83673e-05
2.96303e-05
3.14282e-05
3.34829e-05
3.5612e-05
3.76908e-05
3.96478e-05
4.14502e-05
4.31037e-05
4.46304e-05
4.6053e-05
4.73907e-05
4.86595e-05
4.98701e-05
5.10284e-05
5.21354e-05
5.31942e-05
5.42065e-05
5.51722e-05
5.60904e-05
5.69605e-05
5.77822e-05
5.85559e-05
5.92823e-05
5.99626e-05
6.07625e-05
6.66611e-05
4.5543e-05
3.16341e-05
2.96747e-05
3.02142e-05
3.19005e-05
3.41945e-05
3.67818e-05
3.9455e-05
4.20623e-05
4.45159e-05
4.6773e-05
4.88467e-05
5.076e-05
5.25351e-05
5.41938e-05
5.57577e-05
5.72388e-05
5.86431e-05
5.99731e-05
6.12412e-05
6.24499e-05
6.35981e-05
6.4685e-05
6.57108e-05
6.66764e-05
6.75831e-05
6.84323e-05
6.92262e-05
7.0155e-05
6.81056e-05
4.72183e-05
3.31196e-05
3.12997e-05
3.21801e-05
3.43398e-05
3.71895e-05
4.03747e-05
4.36584e-05
4.68543e-05
4.98589e-05
5.26185e-05
5.51525e-05
5.74801e-05
5.96251e-05
6.16169e-05
6.34863e-05
6.52396e-05
6.68851e-05
6.84339e-05
6.98962e-05
7.12791e-05
7.25869e-05
7.38226e-05
7.49879e-05
7.60847e-05
7.71145e-05
7.80793e-05
7.89815e-05
8.00379e-05
6.95256e-05
4.8935e-05
3.46804e-05
3.30218e-05
3.42812e-05
3.69669e-05
4.0434e-05
4.42829e-05
4.82335e-05
5.20624e-05
5.5654e-05
5.89402e-05
6.18971e-05
6.4562e-05
6.69866e-05
6.92178e-05
7.12979e-05
7.32211e-05
7.50134e-05
7.66987e-05
7.82918e-05
7.98006e-05
8.12298e-05
8.25821e-05
8.38594e-05
8.50633e-05
8.61956e-05
8.7258e-05
8.82524e-05
8.94239e-05
7.09319e-05
5.06991e-05
3.63267e-05
3.48533e-05
3.65307e-05
3.97896e-05
4.39265e-05
4.84888e-05
5.30931e-05
5.75055e-05
6.16019e-05
6.52954e-05
6.85631e-05
7.14699e-05
7.40846e-05
7.64673e-05
7.86673e-05
8.07184e-05
8.26447e-05
8.44631e-05
8.61846e-05
8.78162e-05
8.93619e-05
9.08244e-05
9.22056e-05
9.35075e-05
9.47317e-05
9.58804e-05
9.69555e-05
9.82268e-05
7.23338e-05
5.25159e-05
3.8068e-05
3.68003e-05
3.89224e-05
4.27569e-05
4.75487e-05
5.27732e-05
5.79847e-05
6.29267e-05
6.74492e-05
7.14961e-05
7.50805e-05
7.82579e-05
8.10995e-05
8.36739e-05
8.60388e-05
8.82372e-05
9.02993e-05
9.22448e-05
9.4086e-05
9.58304e-05
9.74824e-05
9.90448e-05
0.00010052
0.00010191
0.000103216
0.000104442
0.000105588
0.00010695
7.37398e-05
5.43902e-05
3.99086e-05
3.88348e-05
4.13767e-05
4.57895e-05
5.1229e-05
5.71e-05
6.2949e-05
6.84618e-05
7.34643e-05
7.79023e-05
8.1803e-05
8.5237e-05
8.82901e-05
9.10436e-05
9.35648e-05
9.59034e-05
9.80938e-05
0.000100158
0.00010211
0.000103958
0.000105708
0.000107361
0.000108921
0.00011039
0.00011177
0.000113064
0.000114275
0.00011572
7.51583e-05
5.63258e-05
4.18295e-05
4.09296e-05
4.39007e-05
4.89521e-05
5.51122e-05
6.16984e-05
6.82067e-05
7.42893e-05
7.97616e-05
8.45762e-05
8.87742e-05
9.24443e-05
9.56898e-05
9.86064e-05
0.000101271
0.000103738
0.000106046
0.000108219
0.000110272
0.000112214
0.000114051
0.000115785
0.000117421
0.000118961
0.000120407
0.000121762
0.000123028
0.000124551
7.65975e-05
5.83253e-05
4.38095e-05
4.312e-05
4.66152e-05
5.23598e-05
5.92759e-05
6.66002e-05
7.37772e-05
8.04228e-05
8.63486e-05
9.1518e-05
9.59893e-05
9.98731e-05
0.000103293
0.000106358
0.000109152
0.000111736
0.000114151
0.000116421
0.000118562
0.000120587
0.000122499
0.000124305
0.000126006
0.000127607
0.00012911
0.000130517
0.000131833
0.000133426
7.80656e-05
6.03894e-05
4.58604e-05
4.54762e-05
4.95475e-05
5.60306e-05
6.37382e-05
7.18204e-05
7.96698e-05
8.68642e-05
9.32221e-05
9.87201e-05
0.000103438
0.000107514
0.000111092
0.000114292
0.000117204
0.000119891
0.000122397
0.000124749
0.000126966
0.000129059
0.000131035
0.000132899
0.000134656
0.000136307
0.000137857
0.000139308
0.000140664
0.000142319
7.95713e-05
6.25128e-05
4.80415e-05
4.80193e-05
5.27183e-05
5.99877e-05
6.85205e-05
7.73754e-05
8.58945e-05
9.36152e-05
0.000100381
0.000106177
0.000111116
0.000115367
0.000119089
0.00012241
0.000125424
0.000128197
0.000130776
0.000133194
0.000135469
0.000137616
0.000139641
0.000141551
0.00014335
0.000145041
0.000146627
0.000148112
0.000149498
0.000151207
8.11232e-05
6.46697e-05
5.03608e-05
5.07689e-05
5.6152e-05
6.42571e-05
7.36461e-05
8.32834e-05
9.24625e-05
0.00010068
0.000107829
0.000113893
0.000119032
0.000123445
0.000127299
0.000130724
0.000133817
0.000136654
0.000139287
0.00014175
0.000144066
0.00014625
0.000148309
0.000150251
0.000152078
0.000153795
0.000155405
0.000156912
0.000158317
0.000160069
8.27302e-05
6.68673e-05
5.28336e-05
5.37462e-05
5.98754e-05
6.8867e-05
7.91401e-05
8.95648e-05
9.93891e-05
0.000108074
0.000115591
0.000121901
0.000127239
0.000131813
0.000135785
0.00013929
0.000142439
0.000145315
0.000147978
0.000150466
0.000152803
0.000155005
0.000157081
0.000159037
0.000160876
0.000162604
0.000164224
0.000165738
0.00016715
0.000168933
8.43996e-05
6.91161e-05
5.54748e-05
5.69736e-05
6.39173e-05
7.38485e-05
8.50313e-05
9.62464e-05
0.000106703
0.000115851
0.000123755
0.000130372
0.00013598
0.000140748
0.00014484
0.000148415
0.000151603
0.000154501
0.000157173
0.000159664
0.000162001
0.000164199
0.00016627
0.00016822
0.000170053
0.000171774
0.000173387
0.000174894
0.0001763
0.000178101
8.61321e-05
7.14414e-05
5.82992e-05
6.04751e-05
6.83095e-05
7.92359e-05
9.13546e-05
0.000103377
0.000114492
0.000124244
0.000132694
0.000140126
0.000146395
0.000151618
0.000156008
0.00015977
0.000163068
0.000166022
0.000168716
0.000171206
0.000173529
0.000175708
0.000177758
0.000179687
0.000181503
0.00018321
0.000184813
0.000186314
0.000187717
0.000189555
8.79391e-05
7.38663e-05
6.13214e-05
6.42766e-05
7.30867e-05
8.5069e-05
9.81665e-05
0.000111093
0.000123084
0.000134298
0.000143997
0.00015206
0.00015868
0.000164137
0.000168699
0.000172594
0.000176
0.000179045
0.00018182
0.000184386
0.000186781
0.000189029
0.000191145
0.00019314
0.000195019
0.000196787
0.000198448
0.000200006
0.000201462
0.000203391
8.9839e-05
7.63999e-05
6.45562e-05
6.84057e-05
7.82878e-05
9.1401e-05
0.000105605
0.000119916
0.00013376
0.000146001
0.000156325
0.000164824
0.000171757
0.000177436
0.000182157
0.000186172
0.000189675
0.000192807
0.000195662
0.000198307
0.00020078
0.000203106
0.000205301
0.000207374
0.00020933
0.000211174
0.00021291
0.000214538
0.000216063
0.000218101
9.18518e-05
7.90547e-05
6.80203e-05
7.28927e-05
8.39591e-05
9.83302e-05
0.000114151
0.000130456
0.000145509
0.000158584
0.000169516
0.000178443
0.000185668
0.000191542
0.000196399
0.000200513
0.000204097
0.0002073
0.000210226
0.000212941
0.000215487
0.00021789
0.000220162
0.000222314
0.000224349
0.000226271
0.000228083
0.000229786
0.000231382
0.000233535
9.39995e-05
8.18448e-05
7.17316e-05
7.77711e-05
9.01681e-05
0.000106129
0.000124236
0.000142041
0.000158214
0.000172133
0.000183662
0.000192993
0.000200478
0.000206519
0.000211484
0.000215675
0.000219319
0.00022258
0.000225564
0.000228342
0.000230955
0.000233429
0.000235777
0.000238006
0.00024012
0.000242121
0.000244011
0.00024579
0.00024746
0.000249732
9.6305e-05
8.47864e-05
7.57105e-05
8.30811e-05
9.70582e-05
0.000115448
0.000135367
0.00015465
0.000171983
0.000186747
0.000198854
0.000208554
0.000216266
0.00022244
0.000227483
0.000231725
0.000235411
0.000238712
0.000241742
0.000244574
0.000247248
0.000249789
0.00025221
0.000254515
0.000256708
0.000258789
0.000260758
0.000262616
0.000264362
0.000266759
9.87924e-05
8.78942e-05
7.9981e-05
8.88821e-05
0.000105069
0.000125732
0.000147564
0.00016841
0.00018693
0.000202531
0.000215185
0.000225218
0.000233118
0.000239389
0.000244479
0.000248745
0.00025245
0.000255775
0.000258838
0.000261713
0.000264441
0.000267046
0.000269537
0.000271918
0.000274189
0.000276351
0.000278401
0.000280339
0.000282164
0.000284691
0.000101485
9.12157e-05
8.45735e-05
9.52987e-05
0.000114118
0.000137097
0.000160959
0.000183443
0.000203173
0.000219596
0.000232765
0.000243091
0.000251135
0.000257463
0.000262566
0.000266827
0.000270527
0.000273857
0.000276939
0.000279847
0.000282623
0.000285286
0.000287844
0.000290299
0.00029265
0.000294893
0.000297027
0.000299047
0.000300952
0.000303616
0.000104395
9.4827e-05
8.95397e-05
0.000102691
0.000124122
0.000149629
0.000175681
0.000199883
0.000220843
0.000238073
0.00025172
0.000262293
0.000270435
0.000276777
0.000281853
0.000286078
0.000289748
0.000293063
0.000296148
0.000299079
0.000301893
0.000304609
0.000307232
0.00030976
0.000312189
0.000314515
0.000316732
0.000318837
0.000320824
0.000323632
0.000107548
9.87565e-05
9.50146e-05
0.00011084
0.000135165
0.000163462
0.000191874
0.000217879
0.000240092
0.000258109
0.000272193
0.000282961
0.000291151
0.000297459
0.000302467
0.000306621
0.000310233
0.000313511
0.000316583
0.000319523
0.000322367
0.000325131
0.000327814
0.000330413
0.00033292
0.000335328
0.000337631
0.000339821
0.000341893
0.000344851
0.000110975
0.000103016
0.000101099
0.000119783
0.000147357
0.000178735
0.000209696
0.000237598
0.000261087
0.000279871
0.000294346
0.000305256
0.000313435
0.000319657
0.000324553
0.000328598
0.00033212
0.000335337
0.000338377
0.000341313
0.000344177
0.00034698
0.00034972
0.000352386
0.00035497
0.000357461
0.000359849
0.000362125
0.000364284
0.000367398
0.00011471
0.000107608
0.000107678
0.000129595
0.000160819
0.000195603
0.000229322
0.000259227
0.00028402
0.000303549
0.000318366
0.000329356
0.000337464
0.000343543
0.000348277
0.00035217
0.00035557
0.000358698
0.000361685
0.000364601
0.000367473
0.000370307
0.000373096
0.000375827
0.000378485
0.000381057
0.00038353
0.000385893
0.000388139
0.000391417
0.00011879
0.000112579
0.000114823
0.000140363
0.000175678
0.00021423
0.000250944
0.000282973
0.000309105
0.000329357
0.000344463
0.000355467
0.000363438
0.000369311
0.000373827
0.000377523
0.000380761
0.000383771
0.000386682
0.000389558
0.000392424
0.000395279
0.000398111
0.0004009
0.000403629
0.00040628
0.000408837
0.000411287
0.00041362
0.000417069
0.000123257
0.000117975
0.000122586
0.000152183
0.000192076
0.000234801
0.000274777
0.000309068
0.000336581
0.000357535
0.000372876
0.000383823
0.000391582
0.000397182
0.000401419
0.000404866
0.000407902
0.000410759
0.000413566
0.000416382
0.000419226
0.000422089
0.000424954
0.000427795
0.00043059
0.000433315
0.000435954
0.000438489
0.000440908
0.000444536
0.000128158
0.000123849
0.000131034
0.000165159
0.000210167
0.000257512
0.000301052
0.000337769
0.000366716
0.000388356
0.000403873
0.000414689
0.000422157
0.000427407
0.0004313
0.000434442
0.000437227
0.000439892
0.000442564
0.000445296
0.000448098
0.000450955
0.00045384
0.000456724
0.000459578
0.000462374
0.00046509
0.000467707
0.000470212
0.000474025
0.000133547
0.000130261
0.00014025
0.000179408
0.000230113
0.000282575
0.000330022
0.000369355
0.000399808
0.000422122
0.000437758
0.000448363
0.000455455
0.000460274
0.000463749
0.000466522
0.000469004
0.000471434
0.000473935
0.000476554
0.000479291
0.000482123
0.000485016
0.000487931
0.000490835
0.000493694
0.000496482
0.000499178
0.000501766
0.000505771
0.000139482
0.000137277
0.00015032
0.000195054
0.000252093
0.000310219
0.000361961
0.000404136
0.000436185
0.000459173
0.000474873
0.000485183
0.000491807
0.000496107
0.000499083
0.000501417
0.000503536
0.000505681
0.000507972
0.000510444
0.00051309
0.000515876
0.000518758
0.000521691
0.000524634
0.000527547
0.000530401
0.00053317
0.000535837
0.000540044
0.000146034
0.000144974
0.000161341
0.000212238
0.000276293
0.000340682
0.00039716
0.000442444
0.000476209
0.000499885
0.000515596
0.000525528
0.000531588
0.000535272
0.000537662
0.000539479
0.000541168
0.000542974
0.000545007
0.000547295
0.000549818
0.000552533
0.000555384
0.000558318
0.000561286
0.000564243
0.000567154
0.00056999
0.000572731
0.000577146
0.00015328
0.000153438
0.000173419
0.000231107
0.000302912
0.000374214
0.000435927
0.000484637
0.000520274
0.000544672
0.000560353
0.000569823
0.000575218
0.000578185
0.000579892
0.000581107
0.000582293
0.000583695
0.000585418
0.000587479
0.000589844
0.000592457
0.000595254
0.000598169
0.000601146
0.000604134
0.000607091
0.000609986
0.000612795
0.000617425
0.000161311
0.000162762
0.000186667
0.000251823
0.000332158
0.000411072
0.000478582
0.000531094
0.000568803
0.000593987
0.000609611
0.00061854
0.000623168
0.00062531
0.000626232
0.000626751
0.000627351
0.00062828
0.000629634
0.000631418
0.000633584
0.000636063
0.000638776
0.00064165
0.000644617
0.00064762
0.000650611
0.000653554
0.000656423
0.000661276
0.000170228
0.000173055
0.000201198
0.000274551
0.00036425
0.000451508
0.000525448
0.00058221
0.000622249
0.000648323
0.000663885
0.000672203
0.000675965
0.00067717
0.000677196
0.000676919
0.000676843
0.000677221
0.000678141
0.000679592
0.000681513
0.000683818
0.000686416
0.000689222
0.000692156
0.000695156
0.000698166
0.000701145
0.000704063
0.000709146
0.000180151
0.000184443
0.000217144
0.000299455
0.000399398
0.000495771
0.000576841
0.000638381
0.000681084
0.000708204
0.000723732
0.000731389
0.000734188
0.000734344
0.00073336
0.000732178
0.00073133
0.000731072
0.000731484
0.000732541
0.000734164
0.000736253
0.0007387
0.000741406
0.000744284
0.000747258
0.000750269
0.00075327
0.000756224
0.000761543
0.000191217
0.000197073
0.000234665
0.000326692
0.00043779
0.000544101
0.000633054
0.000699994
0.000745786
0.000774179
0.000789748
0.00079672
0.000798477
0.000797475
0.000795363
0.000793162
0.000791438
0.000790453
0.000790278
0.000790873
0.000792142
0.000793965
0.00079622
0.000798793
0.000801585
0.000804511
0.000807502
0.000810506
0.000813479
0.00081904
0.000203584
0.000211106
0.000253946
0.000356421
0.0004796
0.000596701
0.000694326
0.000767399
0.000816816
0.0008468
0.000862554
0.00086886
0.000869517
0.000867259
0.000863907
0.000860573
0.000857865
0.000856056
0.000855209
0.000855269
0.000856121
0.000857626
0.000859645
0.000862047
0.000864721
0.00086757
0.000870518
0.000873503
0.000876476
0.000882284
0.000217438
0.000226729
0.000275194
0.000388811
0.000524965
0.000653695
0.000760815
0.000840876
0.000894585
0.000926599
0.000942773
0.000948497
0.000948035
0.000944447
0.000939751
0.000935173
0.000931374
0.000928641
0.000927035
0.000926483
0.000926853
0.000927983
0.000929717
0.000931907
0.000934427
0.000937169
0.000940047
0.000942989
0.00094594
0.000952001
0.000233001
0.000244163
0.000298638
0.000424036
0.000573961
0.000715101
0.000832565
0.000920588
0.000979407
0.00101404
0.00103099
0.00103631
0.00103477
0.00102982
0.0010237
0.00101778
0.00101279
0.00100904
0.00100658
0.00100534
0.00100516
0.00100586
0.00100726
0.00100919
0.00101152
0.00101412
0.0010169
0.00101978
0.00102268
0.001029
0.000250538
0.000263676
0.000324542
0.000462263
0.000626562
0.000780817
0.000909484
0.00100651
0.00107142
0.00110945
0.00112771
0.00113292
0.00113045
0.00112416
0.00111658
0.00110924
0.00110297
0.00109812
0.00109473
0.00109273
0.00109193
0.00109214
0.00109316
0.00109479
0.00109689
0.00109932
0.00110197
0.00110475
0.00110759
0.00111418
0.000270363
0.000285584
0.000353214
0.000503648
0.00068268
0.000850552
0.000991217
0.00109837
0.00117053
0.00121294
0.00123325
0.00123884
0.0012357
0.00122819
0.00121918
0.00121041
0.00120281
0.00119678
0.00119241
0.00118958
0.00118811
0.00118778
0.00118836
0.00118966
0.0011915
0.00119373
0.00119622
0.00119887
0.00120162
0.0012085
0.000292845
0.000310271
0.000385012
0.000548336
0.000742279
0.000923508
0.00107696
0.00119554
0.00127625
0.0013243
0.00134766
0.00135433
0.00135098
0.00134251
0.0013322
0.00132205
0.00131313
0.00130592
0.00130051
0.00129682
0.00129464
0.00129373
0.00129385
0.00129478
0.00129633
0.00129833
0.00130064
0.00130316
0.0013058
0.001313
0.000318486
0.000338213
0.000420354
0.000596496
0.000804549
0.00099975
0.00116611
0.00129701
0.00138765
0.00144281
0.00147053
0.00147929
0.00147642
0.00146747
0.00145615
0.00144479
0.00143464
0.00142629
0.00141987
0.00141532
0.00141242
0.00141092
0.00141057
0.00141112
0.00141236
0.00141412
0.00141624
0.00141861
0.00142114
0.00142871
0.000347903
0.000370035
0.000459699
0.000648487
0.000869327
0.00107782
0.00125758
0.00140121
0.00150322
0.0015672
0.00160088
0.00161306
0.00161171
0.00160299
0.00159118
0.00157895
0.0015678
0.00155845
0.00155113
0.00154578
0.00154221
0.00154016
0.00153935
0.00153953
0.00154048
0.00154201
0.00154395
0.00154617
0.00154861
0.00155659
0.000381771
0.000406581
0.000504132
0.00070382
0.00093638
0.00115719
0.00134973
0.00150645
0.00162089
0.00169544
0.00173697
0.00175428
0.00175582
0.00174841
0.00173688
0.00172435
0.00171262
0.00170258
0.00169457
0.0016886
0.00168447
0.00168196
0.00168076
0.00168064
0.00168135
0.00168268
0.00168447
0.00168658
0.00168896
0.00169745
0.000421038
0.000448571
0.000554484
0.000762694
0.00100481
0.00123707
0.00144102
0.00161049
0.00173818
0.00182485
0.00187621
0.00190065
0.00190685
0.00190218
0.00189207
0.00188011
0.00186845
0.00185823
0.00184992
0.00184361
0.00183918
0.00183638
0.00183496
0.00183464
0.00183521
0.00183643
0.00183814
0.0018402
0.00184259
0.00185169
0.000466944
0.000497162
0.000611041
0.000826881
0.0010747
0.00131592
0.00153001
0.00171127
0.00185231
0.00195224
0.00201527
0.00204895
0.00206187
0.00206174
0.00205454
0.00204435
0.00203372
0.00202407
0.00201606
0.00200989
0.00200552
0.00200274
0.00200133
0.00200103
0.00200161
0.00200287
0.00200462
0.00200672
0.00200924
0.00201908
0.000521022
0.000553815
0.000674829
0.000896093
0.00114612
0.00139347
0.00161578
0.00180712
0.00196077
0.00207428
0.00215031
0.00219518
0.00221694
0.00222339
0.00222089
0.00221399
0.00220565
0.0021976
0.00219072
0.00218537
0.00218161
0.0021793
0.00217826
0.00217827
0.0021791
0.00218058
0.00218254
0.00218483
0.00218763
0.00219837
0.000585334
0.000620335
0.000746884
0.000970528
0.00121841
0.00146966
0.00169804
0.00189736
0.00206182
0.00218817
0.00227761
0.00233499
0.00236744
0.00238248
0.00238661
0.00238472
0.00238015
0.00237495
0.00237025
0.0023666
0.00236416
0.0023629
0.00236271
0.0023634
0.00236481
0.00236677
0.00236913
0.00237179
0.00237507
0.00238687
0.000662789
0.000699263
0.000828207
0.00105007
0.00129394
0.00154661
0.00177676
0.00198221
0.00215498
0.00229233
0.00239439
0.00246459
0.00250883
0.002534
0.00254646
0.00255124
0.00255197
0.00255097
0.00254962
0.00254864
0.00254834
0.00254882
0.00255002
0.00255185
0.00255418
0.00255689
0.00255987
0.00256307
0.00256704
0.00258004
0.000757454
0.000793555
0.000919943
0.00113482
0.00137397
0.00162333
0.00185544
0.00206278
0.00224128
0.00238701
0.00249968
0.00258164
0.0026376
0.0026736
0.00269544
0.0027081
0.00271534
0.00271971
0.00272277
0.00272541
0.00272807
0.00273094
0.00273407
0.00273745
0.00274102
0.00274471
0.00274848
0.00275236
0.00275716
0.00277139
0.00087237
0.000905101
0.000963858
0.00117949
0.00145484
0.0017034
0.00193643
0.00214286
0.00232321
0.00247424
0.00259473
0.00268619
0.00275251
0.00279881
0.0028301
0.002851
0.0028653
0.00287569
0.00288385
0.00289075
0.00289692
0.00290266
0.0029081
0.0029133
0.00291828
0.00292306
0.00292764
0.00293219
0.00293787
0.00295316
0.000942725
0.000922051
0.000953258
0.00115352
0.00147616
0.0017838
0.0020221
0.00222662
0.00240552
0.00255779
0.00268274
0.00278071
0.00285506
0.00291016
0.00294988
0.00297831
0.00299927
0.00301558
0.00302891
0.00304019
0.00305001
0.0030587
0.00306649
0.00307352
0.00307986
0.0030856
0.00309083
0.00309587
0.00310226
0.00311822
0.000944996
0.000921865
0.000943846
0.00112403
0.00144528
0.00175806
0.00204645
0.00230609
0.00249335
0.00264378
0.00276947
0.0028701
0.00294942
0.00301115
0.0030575
0.00309187
0.00311828
0.00313974
0.00315771
0.00317296
0.00318601
0.00319727
0.00320705
0.00321557
0.00322296
0.00322934
0.00323487
0.00324006
0.00324679
0.00326277
0.000947445
0.000921984
0.000935438
0.00110197
0.00141024
0.00172715
0.00201955
0.0022812
0.0025084
0.0027024
0.00286219
0.00296222
0.00304271
0.00310807
0.00315826
0.00319617
0.0032265
0.00325212
0.00327406
0.00329266
0.00330822
0.00332128
0.00333238
0.00334189
0.00334995
0.00335666
0.00336219
0.00336721
0.00337383
0.0033891
0.000950015
0.000922435
0.000927622
0.00108042
0.00138246
0.00169981
0.00199153
0.00225359
0.00248147
0.00267629
0.00284154
0.00298093
0.0030986
0.00319768
0.00326233
0.00330097
0.00333254
0.00336036
0.00338476
0.00340554
0.00342248
0.00343617
0.0034477
0.00345777
0.00346643
0.00347356
0.00347921
0.00348403
0.00349022
0.00350404
0.000952753
0.000923264
0.000920491
0.00105903
0.00135613
0.00167357
0.00196225
0.00222407
0.00245245
0.00264784
0.00281351
0.00295313
0.00307101
0.00317039
0.00325423
0.00332498
0.00338476
0.00343529
0.00347809
0.00351433
0.00353865
0.00355075
0.00356072
0.0035703
0.0035792
0.00358686
0.00359297
0.00359788
0.00360348
0.00361509
0.00095569
0.000924513
0.000914143
0.00103802
0.00131961
0.00164784
0.00193188
0.00219263
0.00242136
0.00261739
0.00278358
0.00292343
0.00304142
0.00314075
0.00322444
0.00329497
0.0033545
0.00340477
0.00344731
0.00348332
0.00351389
0.00353986
0.00356199
0.00358086
0.00359701
0.00361082
0.0036227
0.00363289
0.0036417
0.00364929
0.000958846
0.000926213
0.000908589
0.00101771
0.00129148
0.00161412
0.00189964
0.00215918
0.00238814
0.00258482
0.00275168
0.00289193
0.00301021
0.00310964
0.00319332
0.00326372
0.00332307
0.0033731
0.00341538
0.0034511
0.00348139
0.00350706
0.0035289
0.00354748
0.00356335
0.00357688
0.00358851
0.00359845
0.00360704
0.00361426
0.000962253
0.000928391
0.000903892
0.000997563
0.00126467
0.00158364
0.0018673
0.00212389
0.00235275
0.00255007
0.00271768
0.00285848
0.00297722
0.00307693
0.00316075
0.00323118
0.00329049
0.00334041
0.00338255
0.00341809
0.00344817
0.00347359
0.00349519
0.00351348
0.00352907
0.00354224
0.00355351
0.00356308
0.0035713
0.00357836
0.000965937
0.000931064
0.000900155
0.00097732
0.00122273
0.00154496
0.00183523
0.0020868
0.00231518
0.00251308
0.00268149
0.00282301
0.00294232
0.00304244
0.00312653
0.00319712
0.00325651
0.00330644
0.00334855
0.00338401
0.00341398
0.00343924
0.00346065
0.00347863
0.00349391
0.00350681
0.00351782
0.00352721
0.00353526
0.00354217
0.000969902
0.000934244
0.000897521
0.000958566
0.00117765
0.00150328
0.00179313
0.00204544
0.00227473
0.00247357
0.00264295
0.00278538
0.00290538
0.00300602
0.0030905
0.00316135
0.00322092
0.00327097
0.00331315
0.00334863
0.00337861
0.00340378
0.00342515
0.0034427
0.00345763
0.0034703
0.00348112
0.00349035
0.00349826
0.00350503
0.000974145
0.000937927
0.000896003
0.000941599
0.00114217
0.00145687
0.00174464
0.00200085
0.0022316
0.00243156
0.00260202
0.00274549
0.00286628
0.00296755
0.00305251
0.00312371
0.00318354
0.00323376
0.00327608
0.00331165
0.00334177
0.00336632
0.00338712
0.00340465
0.00341954
0.00343216
0.00344292
0.00345209
0.00345993
0.00346664
0.000978659
0.000942107
0.000895599
0.000925953
0.00110689
0.00140716
0.00170413
0.00195655
0.0021867
0.00238726
0.00255871
0.00270326
0.00282493
0.00292692
0.00301245
0.00308409
0.00314422
0.0031946
0.00323699
0.0032725
0.00330252
0.00332699
0.00334772
0.00336521
0.00338006
0.00339264
0.00340336
0.00341248
0.00342027
0.00342693
0.00098343
0.000946776
0.000896352
0.000911863
0.0010722
0.00135238
0.00165354
0.00190842
0.00213859
0.00234006
0.0025127
0.00265851
0.00278117
0.002884
0.00297024
0.00304243
0.003103
0.00315366
0.00319617
0.00323137
0.00326096
0.00328567
0.00330652
0.00332409
0.00333897
0.00335156
0.00336226
0.00337136
0.00337912
0.00338574
0.000988442
0.000951918
0.000898292
0.000899574
0.0010386
0.00130601
0.00159636
0.00185722
0.00208735
0.00228992
0.00246389
0.0026111
0.00273485
0.00283864
0.0029257
0.00299859
0.00305979
0.00311104
0.0031542
0.00318912
0.00321853
0.00324317
0.00326397
0.0032815
0.00329635
0.0033089
0.00331957
0.00332863
0.00333635
0.00334293
0.000993672
0.00095751
0.000901426
0.000889328
0.00100562
0.00125888
0.00154833
0.00180867
0.00203527
0.00223782
0.00241272
0.00256116
0.00268595
0.00279074
0.00287863
0.00295218
0.00301391
0.00306555
0.00310899
0.00314409
0.00317362
0.00319836
0.00321923
0.00323681
0.00325168
0.00326425
0.00327491
0.00328396
0.00329167
0.00329823
0.000999097
0.00096352
0.00090573
0.000881432
0.000974161
0.00121208
0.00148777
0.00175011
0.00197906
0.00218293
0.00235901
0.00250869
0.00263452
0.00274035
0.00282911
0.00290337
0.00296566
0.00301772
0.0030615
0.00309683
0.00312653
0.00315141
0.00317238
0.00319003
0.00320494
0.00321754
0.00322822
0.00323728
0.00324498
0.00325152
0.00100469
0.000969907
0.000911146
0.000876079
0.00094491
0.0011583
0.00143726
0.00169102
0.00192072
0.00212553
0.0023027
0.00245355
0.00258056
0.00268742
0.00277707
0.00285207
0.00291498
0.00296752
0.00301167
0.00304728
0.00307719
0.00310223
0.00312331
0.00314105