/*--------------------------------*- C++ -*----------------------------------*\
| =========                 |                                                 |
| \\      /  F ield         | OpenFOAM: The Open Source CFD Toolbox           |
|  \\    /   O peration     | Version:  2312                                  |
|   \\  /    A nd           | Website:  www.openfoam.com                      |
|    \\/     M anipulation  |                                                 |
\*---------------------------------------------------------------------------*/
FoamFile
{
    version     2.0;
    format      ascii;
    arch        "LSB;label=32;scalar=64";
    class       volScalarField;
    location    "20000";
    object      Dk;
}
// * * * * * * * * * * * * * * * * * * * * * * * * * * * * * * * * * * * * * //

dimensions      [0 2 -3 0 0 0 0];

internalField   nonuniform List<scalar> 
29400
(
55.8538
64.0046
74.9226
80.0328
84.4949
88.2722
91.1609
93.1478
94.5126
95.4758
96.1677
96.6698
97.0358
97.3037
97.5005
97.6459
97.7536
97.8351
97.8967
97.9394
97.9641
97.9732
97.9705
97.9591
97.9415
97.92
97.8963
97.8724
97.8446
97.8184
62.4784
53.1878
45.1169
47.5689
49.5351
51.3712
52.8455
53.9203
54.7514
55.4467
56.0576
56.6082
57.1101
57.5705
57.9936
58.383
58.7413
59.0719
59.3757
59.6511
59.8975
60.1168
60.3117
60.4852
60.6398
60.7781
60.9021
61.0138
61.1137
61.2047
82.134
64.1764
51.1513
43.8523
39.6528
36.9114
36.7466
37.9191
38.9723
39.953
40.8765
41.7469
42.564
43.326
44.0355
44.6936
45.3018
45.8636
46.3785
46.845
47.2652
47.6434
47.9839
48.2907
48.5674
48.8172
49.0431
49.2477
49.4332
49.6029
102.291
80.2923
63.2754
54.3351
49.349
46.3363
43.9944
42.244
40.9016
39.8491
39.0058
38.3175
37.7469
37.2678
36.8614
36.5139
36.2143
35.9562
36.2875
36.9313
37.519
38.0567
38.5486
38.9983
39.4056
39.7775
40.1178
40.4291
40.7159
40.9343
101.078
86.1042
71.2938
63.213
59.9113
56.6721
54.196
52.5075
51.3354
50.4959
49.8747
49.4027
49.0359
48.7456
48.512
48.3213
48.1636
48.0323
47.9215
47.8262
47.7431
47.6703
47.6042
47.5437
47.4892
47.4405
47.3973
47.3593
47.3263
47.302
78.0993
76.9456
71.0706
68.8181
64.501
65.6229
63.8739
62.8258
62.3489
62.1943
62.2214
62.3508
62.5352
62.7451
62.9617
63.1738
63.3746
63.5608
63.7314
63.8864
64.0268
64.1533
64.268
64.3724
64.4674
64.5541
64.6339
64.7077
64.7768
64.8478
58.3328
63.1252
79.4945
73.9876
68.6994
69.1089
72.3586
73.1407
74.2589
75.6298
77.1095
78.6118
80.0809
81.4803
82.7873
83.9898
85.0836
86.07
86.9544
87.7442
88.4482
89.0751
89.6332
90.1306
90.5758
90.9766
91.3397
91.6702
91.9729
92.2564
46.6709
52.9741
71.4887
73.3959
70.0386
72.6321
76.9435
79.758
82.9499
86.3636
89.8888
93.4378
96.9386
100.333
103.578
106.642
109.506
112.162
114.608
116.852
118.901
120.768
122.465
124.01
125.422
126.719
127.91
129.006
130.013
130.94
38.9534
56.4849
63.6235
69.7344
71.1498
76.0938
80.3905
85.0738
90.0686
95.2986
100.675
106.106
111.504
116.79
121.898
126.777
131.39
135.715
139.743
143.472
146.91
150.07
152.959
155.636
158.131
160.448
162.591
164.567
166.386
168.05
34.5743
46.3442
58.98
67.3429
74.3701
81.1873
87.7826
94.8084
102.276
110.112
118.208
126.443
134.69
142.83
150.759
158.388
165.653
172.507
178.925
184.896
190.422
195.516
200.193
204.471
208.382
211.951
215.205
218.168
220.867
223.303
32.1653
41.5941
57.0338
67.0538
75.5181
83.3231
91.4467
100.095
109.277
118.914
128.887
139.053
149.26
159.361
169.226
178.745
187.834
196.431
204.499
212.022
218.996
225.434
231.355
236.784
241.753
246.292
250.433
254.208
257.647
260.755
30.7332
39.4753
55.541
66.8176
76.3489
85.5115
95.1708
105.523
116.562
128.19
140.258
152.59
164.999
177.306
189.35
200.999
212.145
222.709
232.641
241.915
250.525
258.48
265.803
272.527
278.683
284.308
289.443
294.125
298.391
302.246
30.0261
37.8511
54.4347
66.595
77.0645
87.5881
98.835
110.982
124.005
137.776
152.111
166.8
181.61
196.322
210.748
224.722
238.112
250.817
262.767
273.933
284.302
293.884
302.704
310.797
318.207
324.979
331.159
336.793
341.925
346.567
29.0755
36.9476
53.2865
66.0673
77.5964
89.4806
102.361
116.384
131.5
147.543
164.281
181.442
198.765
216.006
232.939
249.365
265.116
280.072
294.149
307.296
319.498
330.767
341.136
350.648
359.352
367.3
374.549
381.152
387.161
392.595
28.2646
35.8609
52.1395
65.3938
77.9433
91.1812
105.707
121.64
138.908
157.299
176.533
196.281
216.249
236.161
255.742
274.746
292.974
310.28
326.557
341.736
355.813
368.812
380.767
391.726
401.744
410.883
419.207
426.78
433.665
439.885
27.5045
34.8048
50.8558
64.5803
78.0885
92.6549
108.839
126.722
146.207
167.019
188.828
211.243
233.962
256.655
278.984
300.651
321.44
341.159
359.673
376.898
392.874
407.624
421.179
433.587
444.917
455.241
464.636
473.177
480.937
487.931
26.7668
33.7699
49.5073
63.6465
78.061
93.9306
111.769
131.618
153.353
176.624
201.059
226.201
251.707
277.179
302.227
326.531
349.864
371.954
392.644
411.876
429.659
446.032
461.043
474.664
487.093
498.409
508.702
518.052
526.544
534.188
26.0422
32.755
48.1307
62.6117
77.8743
95.006
114.474
136.286
160.235
185.902
212.896
240.685
268.681
296.218
323.172
349.234
374.179
397.652
419.559
439.893
458.68
475.961
491.806
506.29
519.507
531.543
542.495
552.447
561.489
569.647
25.3272
31.7609
46.7378
61.4911
77.5324
95.8464
116.86
140.535
166.428
194.128
222.867
252.191
281.53
310.497
338.738
365.944
391.879
416.367
439.295
460.604
480.299
498.413
515.015
530.182
544.013
556.599
568.045
578.439
587.877
596.389
24.6206
30.7882
45.3376
60.2839
76.9901
96.2947
118.594
143.776
171.074
199.91
229.893
260.473
291.131
321.389
350.847
379.18
406.147
431.573
455.357
477.447
497.852
516.604
533.779
549.457
563.742
576.73
588.53
599.238
608.952
617.707
23.9219
29.8376
43.9295
58.9453
76.1116
96.2529
119.707
145.776
174.153
204.264
235.483
267.221
298.953
330.207
360.592
389.787
417.552
443.711
468.164
490.858
511.803
531.035
548.633
564.68
579.287
592.553
604.595
615.511
625.404
634.313
23.2308
28.909
42.4918
57.4619
75.0132
95.9507
120.095
147.157
176.579
207.693
239.847
272.448
304.967
336.944
367.999
397.82
426.167
452.863
477.801
500.929
522.254
541.815
559.694
575.981
590.788
604.222
616.403
627.433
637.42
646.404
22.5473
28.0019
41.0156
55.8496
73.7842
95.2301
120.131
148.011
178.245
210.1
242.912
276.094
309.124
341.565
373.054
403.287
432.019
459.064
484.311
507.704
529.251
548.994
567.018
583.418
598.312
611.808
624.032
635.088
645.088
654.076
21.8716
27.1143
39.5284
54.2331
72.3932
94.3087
119.808
148.309
179.121
211.448
244.646
278.134
311.413
344.081
375.793
406.242
435.169
462.382
487.761
511.253
532.866
552.648
570.687
587.08
601.95
615.409
627.585
638.585
648.523
657.446
21.204
26.2416
38.0829
52.6181
70.9223
93.1888
119.126
148.045
179.199
211.729
245.057
278.59
311.881
344.571
376.317
406.794
435.731
462.927
488.265
511.693
533.224
552.907
570.836
587.109
601.852
615.18
627.221
638.087
647.891
656.683
20.5447
25.374
36.6783
51.0141
69.3833
91.8826
118.094
147.227
178.489
210.969
244.198
277.547
310.658
343.201
374.806
405.127
433.886
460.885
486.014
509.224
530.532
549.989
567.689
583.735
598.253
611.359
623.184
633.839
643.44
652.04
19.8941
24.5163
35.3215
49.4307
67.7898
90.4054
116.728
145.879
177.03
209.245
242.209
275.231
308.067
340.347
371.657
401.647
430.053
456.69
481.455
504.304
525.257
544.365
561.725
577.439
591.635
604.432
615.959
626.33
635.66
644.005
19.2519
23.6722
34.0167
47.8761
66.1559
88.7748
115.053
144.045
174.916
206.795
239.484
272.426
305.222
337.334
368.339
397.927
425.875
452.026
476.294
498.646
519.109
537.741
554.641
569.913
583.688
596.085
607.234
617.249
626.247
634.274
18.6167
22.8488
32.7668
46.3587
64.4962
87.0119
113.107
141.837
172.43
204.498
237.46
271.182
304.589
337.049
368.189
397.742
425.519
451.395
475.311
497.263
517.298
535.494
551.961
566.816
580.193
592.218
603.022
612.721
621.429
629.206
17.99
22.0508
31.5735
44.8861
62.826
85.144
110.979
139.608
170.552
203.853
237.918
271.676
304.794
336.958
367.85
397.2
424.803
450.526
474.305
496.13
516.047
534.13
550.489
565.241
578.52
590.45
601.165
610.778
619.405
627.109
17.3738
21.2775
30.4378
43.4658
61.1622
83.2166
108.919
138.1
170.241
203.38
236.868
270.251
303.082
334.969
365.581
394.654
421.992
447.469
471.024
492.648
512.384
530.31
546.529
561.16
574.33
586.166
596.796
606.335
614.896
622.542
16.7703
20.5294
29.3608
42.1051
59.5258
81.3319
107.408
137.262
168.966
201.695
234.825
267.823
300.242
331.703
361.891
390.553
417.501
442.614
465.835
487.158
506.626
524.313
540.322
554.767
567.775
579.468
589.973
599.402
607.866
615.429
16.1813
19.8068
28.3431
40.8115
57.9526
79.7569
106.327
135.801
167.107
199.413
232.057
264.523
296.388
327.291
356.929
385.059
411.502
436.143
458.929
479.857
498.968
516.337
532.064
546.26
559.047
570.547
580.88
590.158
598.488
605.936
15.6086
19.1101
27.3858
39.5938
56.5283
78.6663
104.918
134.014
164.869
196.626
228.65
260.456
291.643
321.87
350.844
378.334
404.168
428.239
450.497
470.942
489.616
506.593
521.969
535.853
548.364
559.619
569.735
578.821
586.981
594.279
15.0537
18.4405
26.4898
38.466
55.4148
77.427
103.379
132.04
162.329
193.419
224.709
255.742
286.143
315.587
343.796
370.548
395.681
419.092
440.738
460.621
478.785
495.3
510.261
523.775
535.956
546.917
556.771
565.625
573.578
580.694
14.5173
17.8016
25.6575
37.458
54.445
76.2331
101.808
129.943
159.57
189.896
220.353
250.516
280.033
308.6
335.952
361.879
386.227
408.9
429.859
449.109
466.693
482.684
497.172
510.261
522.06
532.681
542.232
550.815
558.526
565.426
13.9984
17.2026
24.8931
36.6744
53.5658
75.1057
100.261
127.802
156.69
186.17
215.709
244.916
273.464
301.068
327.482
352.506
375.994
397.859
418.064
436.617
453.563
468.972
482.933
495.547
506.919
517.157
526.364
534.639
542.075
548.728
13.4976
16.6437
24.2199
36.0109
52.8111
74.0989
98.8021
125.701
153.793
182.359
210.909
239.083
266.585
293.151
318.554
342.605
365.169
386.164
405.556
423.358
439.612
454.389
467.776
479.87
490.773
500.588
509.415
517.348
524.477
530.854
13.0159
16.1227
23.6609
35.4655
52.2068
73.2561
97.4979
123.727
150.978
178.578
206.079
233.156
259.544
285.007
309.333
332.351
353.933
374.004
392.533
409.534
425.052
439.154
451.925
463.459
473.856
483.214
491.628
499.189
505.981
512.055
12.5542
15.6341
23.1824
35.0492
51.7787
72.6187
96.4072
121.953
148.337
174.932
201.334
227.261
252.48
276.782
299.979
321.91
342.461
361.561
379.184
395.345
410.086
423.476
435.597
446.539
456.398
465.268
473.241
480.403
486.834
492.581
12.1134
15.1801
22.7867
34.7758
51.5488
72.2196
95.5755
120.441
145.942
171.506
196.776
221.512
245.518
268.615
290.636
311.439
330.918
349.009
365.69
380.975
394.909
407.557
418.998
429.321
438.616
446.973
454.482
461.222
467.272
472.672
11.6944
14.7629
22.4814
34.6584
51.5336
72.079
95.029
119.225
143.842
168.362
192.48
216
238.765
260.625
281.438
301.079
319.454
336.506
352.216
366.601
379.702
391.585
402.324
412.006
420.716
428.542
435.567
441.869
447.52
452.556
11.2978
14.3851
22.274
34.708
51.7412
72.2011
94.7719
118.315
142.058
165.538
188.501
210.796
232.306
252.912
272.497
290.955
308.205
324.198
338.918
352.382
364.634
375.733
385.755
394.78
402.892
410.172
416.701
422.551
427.79
432.452
10.9244
14.0494
22.1712
34.9309
52.1703
72.575
94.7883
117.699
140.588
163.045
184.866
205.946
226.203
245.554
263.906
281.174
297.29
312.212
325.931
338.464
349.855
360.162
369.457
377.816
385.32
392.047
398.071
403.461
408.281
412.56
10.5749
13.7579
22.1768
35.3272
52.8097
73.1764
95.0471
117.347
139.41
160.874
181.583
201.471
220.497
238.608
255.739
271.822
286.805
300.657
313.373
324.974
335.501
345.013
353.578
361.269
368.162
374.332
379.848
384.775
389.172
393.065
10.25
13.5123
22.2902
35.8885
53.6389
73.9726
95.5088
117.221
138.492
159.005
178.642
197.379
215.21
232.111
248.044
262.962
276.828
289.622
301.344
312.019
321.688
330.41
338.248
345.274
351.559
357.174
362.184
366.65
370.625
374.131
9.95004
13.3157
22.5419
36.6165
54.6294
74.9274
96.1323
117.28
137.8
157.408
176.026
193.663
210.346
226.082
240.854
254.64
267.416
279.173
289.92
299.685
308.511
316.454
323.577
329.947
335.634
340.702
345.213
349.223
352.78
355.905
9.67571
13.1706
22.7065
37.3906
55.741
76.0045
96.8806
117.49
137.301
156.06
173.716
190.312
205.904
220.526
234.187
246.882
258.605
269.359
279.16
288.04
296.044
303.228
309.653
315.385
320.486
325.02
329.043
332.608
335.757
338.508
9.42738
13.0775
22.6546
37.8651
56.944
77.1701
97.724
117.822
136.972
154.938
171.694
187.311
201.874
215.442
228.047
239.703
250.42
260.211
269.102
277.13
284.342
290.794
296.545
301.659
306.195
310.212
313.764
316.898
319.651
322.039
9.2054
13.0313
22.5164
38.1169
58.1952
78.3946
98.6416
118.259
136.799
154.03
169.948
184.651
198.249
210.827
222.436
233.109
242.87
251.747
259.772
266.987
273.442
279.194
284.301
288.823
292.818
296.341
299.441
302.161
304.534
306.575
9.01024
13.0638
22.377
38.304
59.2777
79.6539
99.6214
118.797
136.776
153.33
168.472
182.325
195.024
206.674
217.349
227.098
235.96
243.974
251.181
257.627
263.366
268.455
272.951
276.912
280.394
283.447
286.118
288.445
290.458
292.171
8.84227
13.0214
22.261
38.4882
60.1357
80.9375
100.662
119.442
136.909
152.842
167.267
180.332
192.195
202.981
212.784
221.669
229.69
236.895
243.334
249.058
254.124
258.589
262.511
265.945
268.943
271.555
273.822
275.78
277.455
278.859
8.70122
12.8898
22.1676
38.6811
60.8531
82.291
101.775
120.215
137.217
152.58
166.345
178.681
189.766
199.75
208.741
216.822
224.058
230.509
236.231
241.281
245.719
249.602
252.987
255.928
258.476
260.675
262.565
264.178
265.537
266.656
8.58548
12.726
22.0883
38.8757
61.5016
83.8918
102.98
121.151
137.735
152.573
165.727
177.386
187.751
196.988
205.224
212.557
219.064
224.813
229.869
234.294
238.148
241.49
244.376
246.86
248.989
250.805
252.345
253.636
254.706
255.564
8.49215
12.5605
22.0133
39.0583
62.104
85.5654
104.307
122.292
138.51
152.865
165.45
176.477
186.17
194.712
202.246
208.883
214.713
219.811
224.25
228.093
231.406
234.247
236.673
238.733
240.467
241.93
243.149
244.15
244.955
245.575
8.20174
12.4025
21.9338
39.2132
62.659
80.397
105.769
123.682
139.599
153.513
165.566
176.001
185.062
192.953
199.83
205.819
211.017
215.511
219.376
222.681
225.493
227.871
229.859
231.531
232.917
234.057
234.981
235.709
236.27
236.676
8.16964
12.2521
21.8417
39.3251
63.181
82.1349
103.958
125.346
141.046
154.575
166.136
176.014
184.479
191.755
198.015
203.395
208.003
211.931
215.261
218.066
220.406
222.354
223.96
225.273
226.328
227.163
227.813
228.297
228.636
228.844
8.3051
11.3272
21.7293
39.3821
59.6017
89.8522
109.072
125.66
142.862
156.086
167.21
176.572
184.477
191.173
196.849
201.653
205.705
209.102
211.931
214.264
216.178
217.728
218.965
219.938
220.688
221.247
221.644
221.902
222.039
222.069
8.26349
11.9301
20.673
39.4055
60.6257
90.8724
110.904
129.404
144.39
158.033
168.798
177.703
185.095
191.249
196.376
200.638
204.164
207.061
209.418
211.314
212.819
213.992
214.887
215.547
216.012
216.314
216.479
216.528
216.48
216.347
8.22235
11.8616
20.9239
39.331
61.5526
91.7677
112.728
131.659
147.432
160.145
170.836
179.382
186.324
191.989
196.612
200.37
203.406
205.833
207.746
209.231
210.353
211.175
211.749
212.117
212.317
212.379
212.328
212.185
211.965
211.682
8.17283
11.7172
21.4102
37.9185
62.119
92.5714
114.48
133.929
149.979
162.939
173.228
181.516
188.101
193.346
197.522
200.827
203.416
205.407
206.917
208.018
208.786
209.283
209.558
209.656
209.61
209.45
209.2
208.878
208.501
208.081
8.15486
11.556
21.1909
39.1485
62.7498
93.1865
116.112
136.135
152.55
165.647
175.947
183.999
190.304
195.211
199.013
201.927
204.123
205.737
206.876
207.633
208.081
208.282
208.287
208.138
207.869
207.507
207.076
206.592
206.072
205.527
8.10864
11.3813
20.9113
39.051
64.8065
93.6353
118.171
138.213
155.056
168.367
178.709
186.678
192.789
197.437
200.94
203.539
205.394
206.693
207.517
207.975
208.144
208.086
207.854
207.487
207.021
206.481
205.89
205.265
204.618
203.963
8.03989
11.1891
20.5676
38.1666
64.8034
91.6293
119.764
140.134
157.433
171.012
181.459
189.421
195.416
199.882
203.153
205.492
207.097
208.129
208.694
208.902
208.836
208.559
208.125
207.574
206.941
206.25
205.523
204.776
204.022
203.273
7.95226
10.9755
20.1428
38.4353
64.721
94.306
118.779
141.865
159.635
173.525
184.131
192.139
198.081
202.427
205.536
207.674
209.066
209.877
210.234
210.245
209.993
209.541
208.941
208.239
207.468
206.653
205.814
204.968
204.126
203.3
7.84726
10.7372
19.6405
37.8397
63.6735
94.3404
120.069
142.964
161.632
175.868
186.677
194.771
200.71
204.986
207.977
209.974
211.204
211.843
212.025
211.874
211.468
210.872
210.143
209.321
208.44
207.525
206.597
205.67
204.756
203.866
7.72501
10.4726
19.0643
36.7963
63.1963
94.1555
122.487
144.466
163.312
178.022
189.065
197.28
203.256
207.504
210.419
212.309
213.412
213.917
213.971
213.686
213.153
212.441
211.604
210.686
209.718
208.724
207.724
206.733
205.762
204.821
7.58743
10.1911
18.4615
36.398
63.1346
94.0052
122.816
145.862
164.94
179.941
191.267
199.638
205.689
209.945
212.819
214.632
215.643
216.045
215.992
215.604
214.972
214.167
213.244
212.248
211.208
210.152
209.097
208.057
207.044
206.068
7.44753
9.91583
17.8366
35.431
62.2914
93.398
122.835
146.667
166.395
181.699
193.274
201.826
207.984
212.277
215.139
216.908
217.855
218.18
218.047
217.578
216.867
215.987
214.995
213.934
212.836
211.727
210.624
209.543
208.492
207.481
7.31185
9.64699
17.1907
34.5371
61.0998
92.665
122.494
147.1
167.415
183.174
195.047
203.801
210.094
214.457
217.334
219.095
220.007
220.288
220.099
219.57
218.797
217.858
216.809
215.695
214.548
213.395
212.252
211.135
210.052
209.013
7.18045
9.38528
16.5369
33.3273
59.9912
91.0283
121.909
147.257
168.111
184.32
196.554
205.572
212.022
216.479
219.409
221.187
222.094
222.349
222.122
221.548
220.729
219.742
218.647
217.49
216.302
215.112
213.935
212.788
211.678
210.616
7.05348
9.13106
15.8808
32.0369
58.0822
89.9308
121.055
147.348
168.613
185.293
197.876
207.149
213.775
218.355
221.363
223.178
224.091
224.335
224.084
223.48
222.626
221.604
220.472
219.278
218.056
216.834
215.629
214.457
213.325
212.243
6.931
8.88484
15.2272
30.6905
56.6285
87.9452
119.889
147.145
168.917
186.109
199.077
208.635
215.455
220.163
223.246
225.101
226.028
226.268
226.002
225.373
224.489
223.433
222.268
221.042
219.789
218.541
217.312
216.12
214.972
213.877
6.81714
8.64713
14.5804
29.2786
54.7173
85.969
118.439
146.563
169.006
186.751
200.144
210.025
217.073
221.936
225.12
227.034
227.99
228.239
227.966
227.322
226.416
225.336
224.143
222.889
221.61
220.335
219.08
217.864
216.692
215.585
6.71106
8.41859
13.946
27.8402
52.4056
83.8483
116.344
145.649
168.869
187.215
201.077
211.318
218.625
223.672
226.981
228.976
229.98
230.253
229.988
229.34
228.421
227.325
226.113
224.841
223.542
222.253
220.984
219.757
218.575
217.447
6.60951
8.19977
13.3282
26.4025
50.4944
81.6146
114.168
144.423
168.497
187.497
201.877
212.517
220.119
225.38
228.838
230.934
232.001
232.312
232.064
231.422
230.498
229.393
228.169
226.889
225.579
224.277
222.994
221.747
220.546
219.398
6.51264
7.99112
12.7301
24.9505
48.6141
79.2164
112.349
143.042
167.924
187.607
202.55
213.627
221.56
227.066
230.699
232.916
234.063
234.424
234.203
233.572
232.647
231.538
230.298
229.027
227.715
226.401
225.103
223.839
222.619
221.452
6.42062
7.79306
12.1549
23.4859
46.2371
76.7061
110.168
141.462
167.209
187.539
203.094
214.649
222.954
228.736
232.57
234.929
236.174
236.599
236.414
235.801
234.876
233.808
232.597
231.31
229.982
228.648
227.328
226.043
224.802
223.614
6.3336
7.60599
11.6066
22.0424
43.6993
73.9742
107.216
139.436
166.174
187.275
203.502
215.584
224.301
230.394
234.455
236.98
238.341
238.848
238.72
238.15
237.25
236.193
234.983
233.687
232.344
230.993
229.654
228.349
227.087
225.879
6.25171
7.43026
11.0879
20.6355
41.0758
71.2893
104.53
137.199
164.879
186.838
203.785
216.438
225.608
232.045
236.36
239.069
240.56
241.161
241.101
240.602
239.761
238.701
237.483
236.174
234.816
233.446
232.088
230.762
229.48
228.25
6.17507
7.26608
10.6012
19.2803
38.3769
67.8666
101.633
134.664
163.321
186.208
203.932
217.208
226.877
233.695
238.293
241.206
242.837
243.527
243.51
243.095
242.307
241.272
240.064
238.755
237.389
236.006
234.632
233.287
231.985
230.736
6.10374
7.11358
10.1483
17.9917
35.6737
64.1448
97.757
131.415
161.32
185.285
203.892
217.871
228.105
235.348
240.267
243.42
245.223
246.038
246.107
245.754
245.004
243.989
242.789
241.476
240.101
238.704
237.312
235.948
234.625
233.353
6.03774
6.97274
9.72995
16.7802
33.0088
60.2312
94.2905
128.365
159.104
184.144
203.652
218.411
229.275
236.997
242.279
245.703
247.704
248.662
248.83
248.547
247.842
246.851
245.66
244.347
242.963
241.552
240.142
238.757
237.412
236.118
5.97705
6.84342
9.3465
15.6531
30.4207
56.5046
89.7777
124.817
156.522
182.677
203.198
218.822
230.376
238.637
244.33
248.061
250.288
251.409
251.69
251.488
250.835
249.873
248.695
247.383
245.991
244.566
243.138
241.732
240.364
239.046
5.92158
6.72546
8.99761
14.6141
27.9187
52.9118
85.2653
120.417
153.351
180.799
202.484
219.078
231.399
240.269
246.426
250.505
252.987
254.293
254.704
254.596
254.002
253.076
251.915
250.606
249.208
247.769
246.322
244.893
243.501
242.157
5.8712
6.61865
8.68268
13.6663
25.5127
48.8036
80.8647
116.275
149.884
178.607
201.533
219.182
232.346
241.894
248.571
253.042
255.814
257.331
257.89
257.889
257.365
256.482
255.342
254.039
252.635
251.183
249.716
248.264
246.846
245.475
5.82572
6.52257
8.40074
12.8126
23.2605
44.6488
76.3653
110.855
145.628
175.944
200.297
219.1
233.205
243.513
250.771
255.682
258.782
260.538
261.267
261.389
260.947
260.114
259.001
257.707
256.299
254.832
253.345
251.869
250.423
249.023
5.78508
6.43667
8.15035
12.0523
21.1889
40.4999
70.925
105.591
140.534
172.624
198.584
218.727
233.915
245.093
253.011
258.425
261.9
263.93
264.854
265.118
264.771
263.997
262.917
261.635
260.224
258.744
257.236
255.734
254.258
252.826
5.74924
6.36029
7.92968
11.3824
19.3187
36.504
65.2809
100.356
135.685
168.975
196.463
218.052
234.453
246.595
255.274
261.268
265.176
267.522
268.671
269.099
268.863
268.159
267.118
265.852
264.44
262.947
261.417
259.886
258.378
256.912
5.71831
6.29243
7.73664
10.7979
17.6553
32.7292
59.4449
93.9417
130.725
164.892
193.867
217.017
234.766
247.999
257.55
264.211
268.619
271.331
272.741
273.361
273.253
272.632
271.637
270.392
268.98
267.474
265.92
264.359
262.815
261.311
5.6915
6.23204
7.569
10.2926
16.1966
29.2356
53.5733
86.6871
124.121
159.782
190.53
215.467
234.767
249.256
259.821
267.252
272.239
275.377
277.093
277.937
277.98
277.457
276.518
275.298
273.889
272.369
270.79
269.195
267.612
266.066
5.66729
6.18164
7.4244
9.86032
14.9364
26.0775
47.8639
79.5971
116.315
153.874
186.537
213.398
234.419
250.341
262.06
270.382
276.044
279.681
281.758
282.865
283.087
282.679
281.808
280.62
279.216
277.681
276.074
274.442
272.816
271.223
5.64615
6.14016
7.30032
9.4942
13.8626
23.2779
42.3864
72.8874
108.839
147.433
181.96
210.806
233.699
251.222
264.233
273.591
280.047
284.275
286.779
288.195
288.626
288.355
287.563
286.413
285.017
283.467
281.829
280.156
278.482
276.836
5.62726
6.10605
7.19381
9.18759
12.9617
20.8504
37.1833
65.1796
100.741
139.87
176.345
207.401
232.407
251.769
266.28
276.86
284.256
289.204
292.249
294.001
294.663
294.546
293.846
292.742
291.358
289.794
288.124
286.406
284.679
282.975
5.6097
6.07844
7.1044
8.93369
12.2179
18.8022
32.4816
57.4765
92.5773
130.788
169.184
202.826
230.293
251.802
268.084
280.078
288.581
294.379
298.07
300.23
301.179
301.258
300.681
299.646
298.286
296.716
295.017
293.254
291.472
289.705
5.59249
6.05118
7.03123
8.72524
11.6126
17.1119
28.372
49.9193
82.8747
121.876
160.634
196.949
227.155
251.144
269.503
283.147
292.958
299.753
304.189
306.873
308.193
308.534
308.125
307.189
305.875
304.312
302.591
300.784
298.944
297.11
5.57554
6.02763
6.97962
8.55452
11.1271
15.747
24.9089
42.917
72.7121
110.814
150.769
189.678
222.802
249.585
270.366
285.977
297.359
305.339
310.663
313.99
315.769
316.446
316.263
315.465
314.224
312.685
310.949
309.102
307.202
305.296
5.55798
6.00559
6.93985
8.41634
10.7433
14.667
22.0843
36.7278
62.648
99.0139
139.237
180.387
216.707
246.726
270.386
288.377
301.626
311.055
317.459
321.564
323.889
325.019
325.142
324.541
323.41
321.917
320.178
318.295
316.333
314.349
5.53933
5.98367
6.91162
8.30905
10.4416
13.8208
19.8189
31.413
52.9236
86.1842
126.875
168.773
208.291
241.873
268.891
289.77
305.343
316.617
324.395
329.501
332.53
334.249
334.772
334.428
333.446
332.021
330.29
328.369
326.339
324.264
5.51694
5.95729
6.87351
8.2327
10.1959
13.1524
18.0325
27.0632
44.1542
72.8789
111.515
153.523
197.027
234.939
266.117
290.627
309.181
322.784
332.359
338.797
342.784
345.207
346.205
346.165
345.354
344.001
342.268
340.292
338.167
335.97
5.49468
5.93154
6.83987
8.18791
10.0254
12.6992
16.8151
24.0005
37.4603
61.426
96.97
138.815
184.469
226.25
261.653
290.107
312.019
328.303
339.986
347.978
353.09
356.338
357.893
358.21
357.6
356.334
354.603
352.565
350.334
348
5.47257
5.90595
6.80588
8.13454
9.9036
12.387
15.9789
21.8529
32.4913
51.9589
83.3726
123.902
170.593
215.828
255.418
288.075
313.715
333.076
347.15
356.972
363.409
367.614
369.809
370.533
370.15
368.981
367.249
365.139
362.786
360.297
5.45076
5.88076
6.77312
8.09044
9.82748
12.1684
15.4032
20.3544
28.8851
44.4858
71.3276
110.044
154.884
203.21
247.082
284.288
314.073
336.934
353.812
365.848
373.964
379.16
382.031
383.194
383.06
381.995
380.26
378.068
375.58
372.916
5.42934
5.8559
6.74035
8.04968
9.78761
12.0156
15.0051
19.3106
26.3042
38.7769
60.9394
95.7302
140.504
189.186
236.751
278.618
312.872
339.596
359.607
374.049
383.989
390.465
394.219
395.971
396.187
395.294
393.595
391.342
388.721
385.877
5.40839
5.83226
6.71095
8.00599
9.72942
11.9045
14.7263
18.5826
24.475
34.551
52.5313
82.4725
124.354
172.02
222.999
270.172
309.569
340.754
364.388
381.63
393.688
401.661
406.455
408.943
409.613
408.959
407.335
405.038
402.285
399.25
5.38787
5.81074
6.69159
7.98597
9.6776
11.8279
14.527
18.0722
23.1831
31.4809
46.0296
71.1615
109.283
156.875
208.201
259.733
304.335
340.369
368.092
388.558
403.008
412.684
418.597
422.083
423.373
423.059
421.565
419.247
416.365
413.127
5.36775
5.79029
6.6721
7.97113
9.65982
11.7739
14.3816
17.7104
22.27
29.2702
41.1276
61.8577
95.3423
140.778
194.074
247.79
297.271
338.395
370.663
394.861
412.178
424
431.402
435.942
437.885
437.923
436.554
434.195
431.155
427.68
5.34803
5.76964
6.6511
7.93593
9.61408
11.709
14.268
17.449
21.6221
27.6843
37.4927
54.4771
83.0899
125.353
177.258
231.913
287.168
334.146
371.649
400.186
420.892
435.227
444.417
450.227
452.971
453.455
452.262
449.885
446.686
442.957
5.32845
5.74918
6.62271
7.90002
9.56899
11.649
14.1729
17.255
21.1591
26.5483
34.827
48.7787
72.693
110.288
160.117
215.978
275.262
327.945
371.038
404.429
429.029
446.278
457.587
464.917
468.634
469.673
468.719
466.351
462.994
458.994
5.30821
5.72626
6.59446
7.86454
9.52477
11.5924
14.0913
17.1062
20.8244
25.7344
32.8864
44.4731
64.2731
96.8023
142.866
198.958
259.412
318.484
368.015
407.091
436.279
457.008
470.84
479.971
484.842
486.548
485.89
483.55
480.024
475.718
5.28853
5.70388
6.56677
7.82958
9.48123
11.5379
14.0182
16.9868
20.5775
25.1496
31.4813
41.2668
57.6542
85.3351
127.927
183.337
243.668
307.218
362.872
408.062
442.479
467.305
484.095
495.342
501.541
504.012
503.691
501.377
497.651
492.989
5.26946
5.68213
6.53969
7.7952
9.43831
11.4848
13.9501
16.8861
20.3896
24.7259
30.4678
38.9062
52.5515
75.6623
112.987
165.417
226.979
293.684
355.392
407.11
447.406
477.067
497.598
511.047
518.689
522.004
522.055
519.764
515.801
510.725
5.25101
5.66104
6.51329
7.76149
9.39604
11.4327
13.8851
16.7971
20.2405
24.4136
29.7363
37.1859
48.7176
67.9573
99.9493
148.142
209.809
278.118
345.537
404.045
450.686
485.63
510.222
526.461
535.96
540.381
540.948
538.737
534.538
529.006
5.2332
5.64063
6.48759
7.7285
9.35452
11.3815
13.8223
16.7155
20.1167
24.177
29.2045
35.9352
45.8669
61.9539
88.9116
131.652
190.338
258.23
331.616
397.811
451.78
492.902
522.27
541.887
553.661
559.45
560.678
558.602
554.156
548.117
5.21602
5.62091
6.46263
7.6963
9.31381
11.3312
13.761
16.6386
20.0091
23.9912
28.8123
35.0262
43.7667
57.3788
79.9623
117.015
171.625
240.551
315.009
388.441
450.306
498.497
533.475
557.157
571.669
579.202
581.317
579.484
574.805
568.209
5.19947
5.60189
6.43842
7.66494
9.27398
11.2819
13.701
16.5649
19.9118
23.839
28.5166
34.363
42.2289
53.9423
72.8889
104.387
153.445
219.402
296.092
376.095
446.102
502.112
543.522
571.929
589.565
599.398
602.727
601.293
596.413
589.204
5.18356
5.58358
6.41499
7.63443
9.23509
11.2336
13.6423
16.4934
19.8211
23.7084
28.2862
33.8739
41.1066
51.3929
67.4388
93.9807
136.848
197.963
274.735
359.776
438.424
503.261
552.162
586.151
607.45
620.134
624.958
624.025
618.92
610.987
5.16826
5.56596
6.39234
7.60479
9.19715
11.1863
13.5847
16.4236
19.7347
23.5917
28.099
33.5056
40.2853
49.5161
63.3109
85.6803
122.63
179.587
255.274
339.416
426.513
501.145
558.941
599.831
625.904
641.729
648.212
647.802
642.383
633.564
5.15356
5.54903
6.37045
7.57604
9.1602
11.1402
13.5283
16.3554
19.6512
23.4837
27.9398
33.2195
39.6785
48.1394
60.2207
79.1682
110.404
160.577
232.386
319.804
411.853
495.672
563.315
612.326
644.184
663.867
672.412
672.668
666.898
657.035
5.13945
5.53278
6.34934
7.54818
9.12426
11.0951
13.4732
16.2887
19.5702
23.3815
27.7988
32.9881
39.2219
47.1297
57.9396
74.2182
100.567
143.791
209.381
295.027
392.318
486.036
564.774
623.32
662.162
686.574
697.69
698.788
692.614
681.506
5.12589
5.51721
6.32898
7.52123
9.08936
11.0513
13.4195
16.2235
19.4912
23.2835
27.6695
32.7928
38.868
46.3828
56.2641
70.5129
92.8792
129.672
187.995
269.155
369.545
472.441
563.055
632.52
679.673
709.786
723.991
726.102
719.431
706.805
5.11288
5.5023
6.30937
7.49519
9.05551
11.0087
13.3671
16.1599
19.4142
23.1889
27.5483
32.6213
38.5834
45.8201
55.0322
67.7649
86.9833
118.16
169.002
245.254
343.551
453.445
556.806
639.028
696.324
733.298
751.165
754.47
747.163
732.673
5.10039
5.48804
6.2905
7.47006
9.02273
10.9673
13.3162
16.098
19.3394
23.0971
27.4329
32.4655
38.3446
45.3843
54.1197
65.7399
82.539
109.026
152.432
220.462
312.187
424.703
543.082
641.05
711.928
756.753