/*--------------------------------*- C++ -*----------------------------------*\
| =========                 |                                                 |
| \\      /  F ield         | OpenFOAM: The Open Source CFD Toolbox           |
|  \\    /   O peration     | Version:  2312                                  |
|   \\  /    A nd           | Website:  www.openfoam.com                      |
|    \\/     M anipulation  |                                                 |
\*---------------------------------------------------------------------------*/
FoamFile
{
    version     2.0;
    format      ascii;
    arch        "LSB;label=32;scalar=64";
    class       volScalarField;
    location    "20000";
    object      Dw;
}
// * * * * * * * * * * * * * * * * * * * * * * * * * * * * * * * * * * * * * //

dimensions      [0 0 -2 0 0 0 0];

internalField   nonuniform List<scalar> 
29400
(
1.85287e+11
1.85291e+11
1.85293e+11
1.85293e+11
1.85294e+11
1.85295e+11
1.85295e+11
1.85295e+11
1.85296e+11
1.85296e+11
1.85296e+11
1.85296e+11
1.85296e+11
1.85296e+11
1.85296e+11
1.85296e+11
1.85296e+11
1.85296e+11
1.85296e+11
1.85296e+11
1.85296e+11
1.85296e+11
1.85296e+11
1.85296e+11
1.85296e+11
1.85296e+11
1.85296e+11
1.85296e+11
1.85296e+11
1.85296e+11
5.09105e+09
5.11252e+09
5.14249e+09
5.17282e+09
5.20945e+09
5.24969e+09
5.29138e+09
5.33265e+09
5.37206e+09
5.40876e+09
5.4423e+09
5.47256e+09
5.4996e+09
5.5236e+09
5.54481e+09
5.56349e+09
5.57993e+09
5.59438e+09
5.60707e+09
5.61823e+09
5.62805e+09
5.63669e+09
5.6443e+09
5.65102e+09
5.65695e+09
5.66219e+09
5.66683e+09
5.67095e+09
5.67466e+09
5.67797e+09
4.89101e+08
4.99446e+08
5.12348e+08
5.24592e+08
5.38727e+08
5.5448e+08
5.71299e+08
5.88607e+08
6.05884e+08
6.22725e+08
6.38842e+08
6.54045e+08
6.68226e+08
6.8134e+08
6.93385e+08
7.04391e+08
7.14407e+08
7.23497e+08
7.31727e+08
7.39169e+08
7.4589e+08
7.51956e+08
7.57426e+08
7.62356e+08
7.668e+08
7.70807e+08
7.74418e+08
7.77676e+08
7.80622e+08
7.83349e+08
7.91082e+07
8.38349e+07
8.93711e+07
9.37163e+07
9.825e+07
1.03218e+08
1.0862e+08
1.1436e+08
1.20315e+08
1.26368e+08
1.3241e+08
1.38351e+08
1.44117e+08
1.49653e+08
1.54919e+08
1.59889e+08
1.64551e+08
1.68898e+08
1.72936e+08
1.76672e+08
1.80118e+08
1.83291e+08
1.86208e+08
1.88887e+08
1.91341e+08
1.93587e+08
1.95641e+08
1.97517e+08
1.9923e+08
2.00827e+08
1.64346e+07
1.85517e+07
2.12432e+07
2.29967e+07
2.45335e+07
2.60827e+07
2.77246e+07
2.94723e+07
3.13151e+07
3.32321e+07
3.51975e+07
3.71839e+07
3.91648e+07
4.11159e+07
4.30165e+07
4.48495e+07
4.66022e+07
4.82659e+07
4.98351e+07
5.13073e+07
5.26825e+07
5.39623e+07
5.51492e+07
5.62474e+07
5.72618e+07
5.81973e+07
5.90587e+07
5.98509e+07
6.05788e+07
6.12589e+07
4.41546e+06
5.42011e+06
6.89085e+06
7.80581e+06
8.51526e+06
9.1489e+06
9.77103e+06
1.04071e+07
1.10666e+07
1.17505e+07
1.24549e+07
1.31728e+07
1.3896e+07
1.46157e+07
1.53233e+07
1.60113e+07
1.66736e+07
1.73055e+07
1.79039e+07
1.84669e+07
1.89937e+07
1.94845e+07
1.99395e+07
2.03602e+07
2.07484e+07
2.1106e+07
2.1435e+07
2.17372e+07
2.20147e+07
2.22725e+07
1.64161e+06
2.12583e+06
3.04588e+06
3.67393e+06
4.13904e+06
4.52029e+06
4.86488e+06
5.19705e+06
5.5289e+06
5.86582e+06
6.20906e+06
6.55722e+06
6.90728e+06
7.25536e+06
7.59736e+06
7.92942e+06
8.2483e+06
8.5515e+06
8.83731e+06
9.1048e+06
9.35362e+06
9.58396e+06
9.79631e+06
9.99147e+06
1.01704e+07
1.03342e+07
1.04838e+07
1.06205e+07
1.07452e+07
1.08596e+07
799829
1.08617e+06
1.77843e+06
2.29505e+06
2.6767e+06
2.97886e+06
3.23978e+06
3.48125e+06
3.71532e+06
3.9483e+06
4.18283e+06
4.41904e+06
4.65544e+06
4.88965e+06
5.11888e+06
5.34044e+06
5.55203e+06
5.75188e+06
5.93883e+06
6.11228e+06
6.27211e+06
6.41857e+06
6.5522e+06
6.6737e+06
6.78387e+06
6.8836e+06
6.97375e+06
7.05519e+06
7.12872e+06
7.19481e+06
480981
699254
1.28922e+06
1.7515e+06
2.09681e+06
2.36845e+06
2.59943e+06
2.80942e+06
3.00995e+06
3.20746e+06
3.40495e+06
3.60307e+06
3.80084e+06
3.99638e+06
4.18739e+06
4.37157e+06
4.54695e+06
4.71199e+06
4.86573e+06
5.00766e+06
5.13772e+06
5.2562e+06
5.36359e+06
5.46052e+06
5.54776e+06
5.62611e+06
5.69641e+06
5.75942e+06
5.81588e+06
5.86583e+06
345309
533431
1.06048e+06
1.48683e+06
1.80989e+06
2.0652e+06
2.28202e+06
2.47833e+06
2.66498e+06
2.84825e+06
3.03114e+06
3.21441e+06
3.39728e+06
3.57805e+06
3.75456e+06
3.9247e+06
4.08658e+06
4.23878e+06
4.38036e+06
4.51087e+06
4.63024e+06
4.73873e+06
4.83684e+06
4.92522e+06
5.00458e+06
5.07569e+06
5.13932e+06
5.1962e+06
5.247e+06
5.29161e+06
280609
448724
925847
1.32114e+06
1.62521e+06
1.86758e+06
2.0743e+06
2.26182e+06
2.44026e+06
2.61556e+06
2.79058e+06
2.96608e+06
3.1413e+06
3.31459e+06
3.48391e+06
3.64717e+06
3.80256e+06
3.94868e+06
4.08461e+06
4.2099e+06
4.32448e+06
4.42859e+06
4.52271e+06
4.60744e+06
4.6835e+06
4.75162e+06
4.81253e+06
4.86695e+06
4.91552e+06
4.95807e+06
244628
395694
827820
1.19329e+06
1.47873e+06
1.70853e+06
1.90582e+06
2.08553e+06
2.25706e+06
2.42592e+06
2.59479e+06
2.76434e+06
2.9338e+06
3.10156e+06
3.26558e+06
3.42385e+06
3.57458e+06
3.7164e+06
3.84838e+06
3.97008e+06
4.08141e+06
4.1826e+06
4.27409e+06
4.35648e+06
4.43044e+06
4.49669e+06
4.55594e+06
4.60888e+06
4.65613e+06
4.69752e+06
220737
356114
746259
1.08265e+06
1.3494e+06
1.56642e+06
1.75408e+06
1.92592e+06
2.09056e+06
2.25308e+06
2.41597e+06
2.57978e+06
2.74371e+06
2.90616e+06
3.06513e+06
3.21865e+06
3.36493e+06
3.50265e+06
3.63088e+06
3.74918e+06
3.85743e+06
3.95586e+06
4.04487e+06
4.12507e+06
4.19707e+06
4.2616e+06
4.3193e+06
4.37089e+06
4.41693e+06
4.45731e+06
202287
323205
674180
982442
1.2306e+06
1.43461e+06
1.61236e+06
1.77602e+06
1.93349e+06
2.08942e+06
2.24607e+06
2.4039e+06
2.56205e+06
2.71895e+06
2.87263e+06
3.02114e+06
3.16273e+06
3.29612e+06
3.42034e+06
3.535e+06
3.63993e+06
3.7354e+06
3.82172e+06
3.89955e+06
3.96939e+06
4.03206e+06
4.08805e+06
4.13818e+06
4.18286e+06
4.22216e+06
186630
294411
609085
890396
1.12023e+06
1.31115e+06
1.47876e+06
1.63397e+06
1.78396e+06
1.933e+06
2.08309e+06
2.23461e+06
2.38664e+06
2.53766e+06
2.68568e+06
2.82885e+06
2.96538e+06
3.09409e+06
3.21393e+06
3.32465e+06
3.4259e+06
3.51814e+06
3.60142e+06
3.67667e+06
3.74405e+06
3.80471e+06
3.85872e+06
3.90731e+06
3.95039e+06
3.98857e+06
172702
268683
549920
805597
1.01753e+06
1.1954e+06
1.35273e+06
1.4993e+06
1.6416e+06
1.78347e+06
1.92675e+06
2.07168e+06
2.21726e+06
2.36209e+06
2.50411e+06
2.64165e+06
2.77275e+06
2.8965e+06
3.01158e+06
3.11812e+06
3.21528e+06
3.30413e+06
3.38398e+06
3.45659e+06
3.52116e+06
3.57984e+06
3.63154e+06
3.6787e+06
3.71985e+06
3.75709e+06
160049
245490
496087
727532
922109
1.08707e+06
1.23411e+06
1.37195e+06
1.5064e+06
1.64096e+06
1.77723e+06
1.9154e+06
2.05429e+06
2.1928e+06
2.3286e+06
2.46039e+06
2.58578e+06
2.70455e+06
2.81453e+06
2.91697e+06
3.00969e+06
3.09534e+06
3.17137e+06
3.24171e+06
3.30316e+06
3.36026e+06
3.40937e+06
3.45548e+06
3.49447e+06
3.53112e+06
148439
224494
447141
655809
833660
985976
1.12281e+06
1.25193e+06
1.37853e+06
1.50574e+06
1.63498e+06
1.76643e+06
1.89857e+06
2.03094e+06
2.16064e+06
2.28684e+06
2.4068e+06
2.52069e+06
2.62606e+06
2.72439e+06
2.81339e+06
2.89568e+06
2.96881e+06
3.03631e+06
3.09536e+06
3.15014e+06
3.19732e+06
3.24157e+06
3.27903e+06
3.31424e+06
137730
205436
402698
590074
751923
891956
1.01879e+06
1.13935e+06
1.2582e+06
1.37827e+06
1.50079e+06
1.62587e+06
1.75185e+06
1.8778e+06
2.00129e+06
2.12144e+06
2.23574e+06
2.34427e+06
2.44477e+06
2.53856e+06
2.62349e+06
2.70204e+06
2.77187e+06
2.83637e+06
2.89276e+06
2.94514e+06
2.99021e+06
3.03255e+06
3.06833e+06
3.10208e+06
127818
188101
362405
529999
676647
804865
922010
1.03437e+06
1.14592e+06
1.2594e+06
1.3751e+06
1.49322e+06
1.61239e+06
1.73163e+06
1.84869e+06
1.96263e+06
2.07114e+06
2.17418e+06
2.26966e+06
2.35879e+06
2.43953e+06
2.51423e+06
2.58064e+06
2.64202e+06
2.69566e+06
2.74555e+06
2.78841e+06
2.82877e+06
2.8628e+06
2.89502e+06
118619
172309
325940
475271
607593
724586
832559
937394
1.04185e+06
1.14811e+06
1.2567e+06
1.36775e+06
1.48e+06
1.59246e+06
1.70301e+06
1.81068e+06
1.91332e+06
2.01082e+06
2.10123e+06
2.18563e+06
2.26214e+06
2.33293e+06
2.39587e+06
2.45407e+06
2.50492e+06
2.55225e+06
2.59288e+06
2.6312e+06
2.66344e+06
2.69409e+06
110067
157902
292994
425599
544551
651091
750825
847893
944942
1.04396e+06
1.14544e+06
1.24944e+06
1.35479e+06
1.46047e+06
1.56452e+06
1.66592e+06
1.76269e+06
1.85464e+06
1.93998e+06
2.01965e+06
2.09191e+06
2.15877e+06
2.21823e+06
2.27323e+06
2.32128e+06
2.36603e+06
2.40442e+06
2.44068e+06
2.47113e+06
2.50017e+06
102105
144741
263281
380705
487409
584356
675732
765111
854877
946763
1.04125e+06
1.13829e+06
1.23683e+06
1.3358e+06
1.4334e+06
1.5286e+06
1.61955e+06
1.70599e+06
1.78629e+06
1.86126e+06
1.92929e+06
1.99224e+06
2.04825e+06
2.10006e+06
2.14532e+06
2.18749e+06
2.22365e+06
2.25785e+06
2.28652e+06
2.31394e+06
94685.3
132708
236528
340175
435704
523446
606793
688749
771448
856404
944059
1.0343e+06
1.12614e+06
1.21853e+06
1.30979e+06
1.39887e+06
1.48409e+06
1.5651e+06
1.64043e+06
1.71075e+06
1.77461e+06
1.8337e+06
1.8863e+06
1.93495e+06
1.97746e+06
2.01708e+06
2.05104e+06
2.08318e+06
2.11011e+06
2.13591e+06
87766.1
121695
212482
303692
388909
468004
543715
618570
694474
772744
853777
937412
1.02273e+06
1.10869e+06
1.19375e+06
1.27685e+06
1.35644e+06
1.43213e+06
1.50258e+06
1.56835e+06
1.62813e+06
1.68342e+06
1.73267e+06
1.77821e+06
1.81803e+06
1.85513e+06
1.88694e+06
1.91705e+06
1.94227e+06
1.96647e+06
81311.9
111610
190905
270945
346698
417720
486224
554342
623761
695624
770282
847535
926531
1.00626e+06
1.08528e+06
1.16256e+06
1.23667e+06
1.30718e+06
1.37287e+06
1.43419e+06
1.48998e+06
1.54156e+06
1.58755e+06
1.63005e+06
1.66724e+06
1.70188e+06
1.73159e+06
1.75971e+06
1.78327e+06
1.80589e+06
75291.3
102368
171570
241636
308753
372293
434049
495821
559095
624857
693413
764535
837439
911143
984327
1.05597e+06
1.12477e+06
1.19026e+06
1.25133e+06
1.30834e+06
1.36026e+06
1.40824e+06
1.45107e+06
1.49062e+06
1.52526e+06
1.5575e+06
1.58518e+06
1.61136e+06
1.6333e+06
1.65438e+06
69676.8
93898
154268
215479
274768
331422
386907
442745
500233
560221
622969
688237
755302
823228
890795
957017
1.02069e+06
1.08134e+06
1.13796e+06
1.19082e+06
1.239e+06
1.28352e+06
1.32329e+06
1.35999e+06
1.39218e+06
1.4221e+06
1.44783e+06
1.47212e+06
1.49252e+06
1.51209e+06
64443.4
86133.3
138804
192200
244441
294807
344509
394834
446910
501463
558717
618439
679954
742373
804579
865618
924406
980419
1.0328e+06
1.08168e+06
1.12632e+06
1.16751e+06
1.20439e+06
1.23835e+06
1.26822e+06
1.2959e+06
1.31979e+06
1.34226e+06
1.36122e+06
1.37932e+06
59568.9
79016.2
125000
171540
217479
262146
306554
351792
398834
448317
500414
554890
611126
668289
725366
781443
835547
887130
935454
980539
1.02179e+06
1.05982e+06
1.09395e+06
1.12531e+06
1.153e+06
1.17855e+06
1.20072e+06
1.22145e+06
1.23907e+06
1.25577e+06
55033.1
72494.7
112690
153252
193599
233138
272733
313309
355707
400465
447716
497231
548448
600598
652764
704085
753686
801013
845428
886869
924866
959853
991349
1.02022e+06
1.0458e+06
1.06933e+06
1.08985e+06
1.10892e+06
1.12526e+06
1.14062e+06
50817.2
66521.9
101723
137105
172525
207485
242736
279065
317185
357546
400256
445100
491568
538959
586442
633219
678499
721744
762393
800329
835178
867245
896183
922660
946201
967779
986694
1.00418e+06
1.01927e+06
1.03335e+06
46904.1
61055.5
91961.1
122883
153994
184895
216251
248721
282912
319203
357684
398154
440156
483051
526094
568548
609705
649047
686083
720659
752474
781738
808203
832381
853945
873652
891004
906970
920833
933690
43277.7
56057
83280.1
110385
137754
165083
192961
221942
252544
285089
319651
356047
393869
432542
471397
509764
547005
582636
616223
647592
676500
703082
727168
749144
768797
786714
802551
817062
829734
841416
39922.5
51491.5
75566.6
99426.7
123571
147774
172562
198405
225743
254855
285802
318423
352354
387084
422012
456534
490081
522203
552516
580840
606976
631004
652811
672689
690507
706714
721090
734213
745731
756292
36824
47325.7
68718.6
89837.3
111221
132706
154764
177796
202180
228158
255787
284927
315256
346321
377589
408517
438597
467419
494644
520092
543599
565209
584848
602734
618797
633382
646356
658161
668567
678062
33968.1
43530
62644.8
81463.4
100499
119633
139292
159816
181536
204667
229264
255207
282219
309898
337772
365359
392206
417944
442273
465022
486053
505384
522971
538977
553374
566425
578062
588622
597963
606450
31341.5
40077.1
57263
74164.4
91216.5
108331
125889
144185
163512
184065
205901
228925
252896
277462
302208
326706
350558
373431
395062
415291
434003
451201
466860
481101
493926
505535
515906
525294
533623
541159
28931.2
36941.5
52499.6
67813.9
83203.1
98591.3
114318
130640
147824
166052
185388
205756
226952
248672
270549
292210
313301
333528
352661
370555
387111
402324
416181
428776
440128
450390
459571
467863
475235
481882
26724.7
34099.4
48288.5
62299.3
76304
90224.2
104360
118941
134211
150350
167428
185392
204069
223198
242460
261526
280089
297889
314724
330466
345030
358408
370596
381665
391646
400658
408727
416002
422478
428295
24709.9
31528.9
44570.7
57520
70380.9
83059.6
95818.2
108865
122434
136702
151750
167545
183945
200728
217616
234325
250585
266170
280905
294677
307415
319108
329759
339424
348139
355999
363039
369374
375017
380068
22874.9
29209
41293.4
53386.9
65310.7
76944.9
88515.4
100216
112275
124872
138101
151947
166299
180966
195712
210289
224464
238041
250868
262848
273922
284079
293325
301708
309263
316069
322164
327638
332513
336861
21208.1
27120.2
38409.2
49821.4
60984.4
71744.7
82293.2
92814.3
103536
114646
126250
138353
150869
163637
176458
189117
201414
213180
224285
234646
244214
252980
260953
268173
274674
280522
285756
290447
294622
298328
19698.3
25244.2
35875.7
46754
57305.9
67339.3
77011.4
86501.3
96042.5
105832
115990
126538
137414
148486
159585
170527
181141
191283
200843
209750
217965
225480
232307
238479
244031
249016
253472
257457
260997
264124
18334.8
23563.6
33655.4
44123.9
54191.2
63623.8
72546.3
81136.6
89637.2
98257.8
107131
116298
125715
135277
144841
154254
163368
172062
180244
187853
194859
201257
207059
212295
216997
221211
224971
228324
231295
233903
17106.9
22062.2
31714.8
41877.4
51566.4
60506.4
68789.7
76596.6
84181.8
91769.1
99505.4
107447
115571
123794
131998
140054
147837
155247
162205
168663
174596
180003
184896
189302
193250
196778
199920
202713
205176
207325
16004.7
20724.9
30001.7
39960.6
49367.4
57906.8
65647.1
72773
79554.4
86230.6
92962.5
99821.8
106803
113842
120844
127701
134310
140585
146463
151906
156893
161426
165518
169192
172475
175401
177997
180296
182313
184057
15020.8
19536.3
28522.7
38311.7
47538.4
55755.6
63036.1
69571.2
75648.1
81522.4
87369.1
93274.2
99247.5
105244
111188
116990
122565
127844
132775
137325
141483
145251
148640
151674
154376
156774
158894
160761
162388
163779
14138.5
18481.3
27317.3
36969.4
46026.6
53992
60885.1
66909
72369.5
77539.3
82607.5
87673.3
92760.9
97841.8
102856
107734
112404
116811
120913
124685
128120
131220
133999
136475
138672
140612
142319
143811
145100
146186
13355
17547.4
26332.3
35909.3
44767.8
52563.7
59132.1
64714.5
69637
74189.2
78574
82903.1
87213.9
91492.3
95694.2
99763.1
103644
107291
110672
113768
116575
119097
121346
123342
125101
126647
127996
129166
130164
130990
12661.2
16704
25486.4
35057.1
43750
51427.2
57723
62925.7
67379.5
71391.4
75177.5
78861.3
82492.2
86069.3
89561.7
92926.5
96120.3
99107.6
101863
104375
106639
108662
110456
112038
113423
114630
115673
116567
117317
117922
12047.7
15979.6
24762
34353.6
42958.4
50543.5
56610.7
61488.3
65535.3
69075.5
72338.1
75457.8
78494.9
81460.3
84335
87088
89686.1
92102.3
94318.1
96325.1
98122.8
99718.2
101122
102349
103414
104332
105115
105775
106315
106734
11506.4
15373.3
24129.7
33760.2
42353.3
49872.8
55753.8
60355.4
64050.3
67179.9
69985.9
72613.4
75132.9
77565.9
79904.1
82126.6
84209.3
86132.8
87883.8
89457.6
90855.4
92084.7
93155.5
94080.9
94873.4
95546.1
96108.7
96570.4
96934
97199
11030.4
14856.4
23571.7
33250.4
41890.1
49364.4
55116.3
59486.1
62877.5
65651
68059.5
70258.6
72327.8
74298.3
76171.3
77935
79573
81072.3
82424.3
83627.1
84683.3
85600.6
86388.1
87057.6
87619.4
88084.9
88461.8
88757.4
88973.9
89111.4
10613.2
14405.6
23074.4
32804.2
41528
49010.6
54670.2
58844.8
61976.1
64441.7
66505.4
68332.4
70010.7
71580.3
73050.7
74418.3
75673.3
76808.4
77818.5
78704.5
79469.6
80121.8
80669
81122.1
81489.3
81780.6
82001.6
82158.9
82253.4
82286.5
10248.6
14005.8
22626.5
32405.3
41233.3
48906.9
54390
58400.6
61310.4
63511.2
65276.6
66781.6
68121.1
69344
70466.6
71492.9
72418.6
73241.6
73959.4
74575.4
75093
75520.6
75864.6
76135.3
76338.8
76484.2
76575
76617.5
76611.7
76559.9
9932.75
13647.3
22218.4
32039.3
40999.1
48902.8
54233.4
58126.1
60849.7
62824.2
64332.5
65559.5
66606.3
67530
68352.5
69085.5
69728.6
70284.7
70752.9
71139.3
71446.7
71684.4
71857
71974.4
72040.5
72063.9
72046.5
71994.2
71906.3
71786
9657.44
13365.8
21841.4
31692.5
40895.4
48797.2
54248.6
58000.9
60568.2
62350.5
63637.9
64625.9
65420.1
66086.3
66650.5
67131.9
67532.6
67861
68116.4
68307.9
68437.2
68514.7
68542.6
68531.4
68482.4
68404.5
68297.1
68167.2
68012.2
67837.2
9420.32
13071.5
21529.1
31385.5
40878.2
48867.7
54329.2
58031.9
60443.5
62064.3
63162.6
63946
64522.7
64968
65310.1
65576.2
65769.4
65903.8
65977.8
66004.5
65982.7
65925.3
65831.2
65712.5
65567
65405.2
65223.4
65030.2
64820.6
64602.1
9211.34
12836.5
21375.2
31059.4
40914.8
48991.7
54490
58149.9
60476.3
61944.4
62881.4
63490.4
63880.1
64136.4
64287.6
64370
64385.5
64355.2
64274.6
64161.8
64011.8
63841.3
63644.3
63436.2
63209.8
62979
62735.3
62491
62236.8
61984
9021.29
12588.2
21225.3
30858.3
40723.8
49167.1
54722.1
58362.1
60615.7
61984.6
62774
63234
63463.1
63558.3
63545.3
63471.5
63334.6
63165.1
62952
62722
62463
62198.1
61914
61631.9
61337.5
61050.4
60755.2
60470
60178.9
59899.5
8845.89
12338.2
20956
30829.8
40837.4
49361.2
55011.5
58658.4
60862.4
62147.3
62827.2
63157.2
63247.5
63205.6
63051
62844.8
62577.2
62289.2
61963.3
61635.4
61283.4
60940.2
60582
60239.1
59887.1
59554.4
59215.8
58898.3
58576.4
58276.8
8685.08
12093.6
20672.3
30907.3
40960.3
49552.6
55322
59027.7
61206.8
62428
63013.4
63240.9
63211.9
63054.1
62777.4
62459.2
62079.8
61691.9
61268.5
60858.9
60427.2
60019.4
59597.6
59205.5
58804.1
58435.3
58059.4
57717.1
57368.5
57054.1
8532.91
11849.5
20371.6
31032.3
41026.1
49787
55677.4
59465.2
61639.4
62816.7
63324.2
63468.8
63335.4
63078.4
62698.6
62287.5
61808.5
61339.3
60832.4
60355.8
59854.8
59394.5
58917.5
58486.2
58041.6
57644.9
57236.1
56875.5
56502.8
56178.5
8384.22
11600.5
20036.7
30962.2
41264.2
50227.8
56092.4
59964.4
62150.3
63303.1
63749.7
63827.9
63606.2
63265.2
62789.7
62300.3
61739.9
61205.5
60626.1
60094.5
59532.1
59029.9
58503.9
58042.5
57559.2
57142
56703
56330.1
55934.5
55604.9
8234.19
11341.2
19670.2
30797.8
41640.5
50521.1
56694.3
60509.8
62729.8
63877.8
64279.8
64305.7
64009.8
63601.1
63043.8
62485.9
61846.3
61256.1
60613.7
60041.9
59427.2
58894.4
58324.3
57841.4
57321.9
56891.3
56423
56043.9
55624.7
55294.7
8077.58
11056
19274.7
30682.2
41603.3
50767.6
57338.4
61189.9
63394.2
64506.9
64932.4
64860.8
64565.1
64037.6
63478.1
62794.8
62160.2
61446.5
60820.9
60133.2
59551.5
58912.7
58388.3
57805.9
57341.4
56815.8
56409.7
55938.8
55588.1
55169
7937.82
10766.6
18874.1
30737.1
41675.3
51334.3
57938.7
61911.8
64129.9
65215.2
65638.4
65530.4
65202
64617.5
64015.8
63269.7
62594.6
61821
61166.7
60426.6
59827.4
59143
58610.8
57988.9
57525.4
56965.3
56567.2
56065.5
55728.3
55280.5
7774.83
10478.1
18418.5
30884.7
41999.4
51750
58546.5
62621.4
64946.6
66022.2
66429.4
66290.6
65941.7
65306.8
64673.6
63867.3
63159.7
62329.9
61657.9
60866.6
60260.5
59528.8
58999.5
58333.4
57881.2
57279.2
56899.8
56357.4
56045.2
55557
7618.69
10192.8
17912.7
30530.1
42453.3
52263
59143.8
63348
65763.9
66871.8
67284.8
67117.4
66752.1
66072.9
65413.9
64553.5
63836.4
62956.4
62278.9
61435.4
60833.9
60050.1
59536.3
58817.8
58391.6
57735.7
57391.8
56793.6
56525.3
55978.7
7470.19
9911.6
17378.6
30048.2
42291.3
52442.2
59678.8
64075.5
66609.4
67769.5
68210.6
68023.9
67640.9
66917.4
66250.8
65348.5
64628.8
63694.5
63022.5
62120.4
61537.6
60691.8
60210.9
59424.8
59048.1
58316.6
58037.2
57355.4
57165.2
56527
7329.25
9634.59
16820.6
29468.2
41886.9
52344.8
60140.5
64793.3
67483.7
68715.2
69201.5
69013.6
68635.6
67876.2
67201.4
66247.5
65527.2
64534.2
63878.2
62909.6
62370.4
61440.8
61033.8
60140.5
59870.8
59006.6
58864.6
58026.9
57993.5
57185.4
7195.92
9362.23
16243
28801.2
41939.3
52027.4
60498
65495.1
68381.1
69703.9
70248.5
70070.2
69707.8
68918.7
68247
67245.9
66531.7
65481.3
64846.5
63806.4
63318.9
62291.5
61993.3
60955.4
60873
59795.1
59955.3
58797.3
59231.7
57945.2
7070.76
9095.16
15651.2
28024.6
41298.4
52014.5
60782.9
66178.4
69295.7
70730.9
71347.2
71188.4
70847.3
70034.6
69370.5
68325.7
67624.6
66515.1
65913.4
64795
64373.2
63240.2
63075.1
61870.4
62103.1
60682.2
61755.4
59661.5
65131.3
58794.7
6953.99
8834.14
15051.6
27185.9
40394.5
51576
60896
66825.4
70223.2
71796.6
72500.3
72369.6
72057.2
71223.7
70572.7
69484.5
68802.7
67631.2
67077.2
65868.3
65564.8
64275.7
64434
62875.6
64638.8
61666.3
63364.3
60632.5
61202.2
59751.3
6845.38
8579.95
14448.8
26316
40296.1
51459
60773.2
67425.9
71160.4
72902
73712.2
73618
73343.8
72492.6
71863.4
70728.1
70080.1
68833.5
68361.4
67027.3
66955
65396.7
66655.5
63969.6
65486
62740.4
63140.9
61686.2
61849.5
60784.8
6744.95
8333.32
13846
25355.4
40288.2
51331.8
61091.8
68126.5
72144.6
74060
74990.4
74939.6
74713.5
73848.1
73248.9
72063.4
71465.3
70128.6
69791.5
68276.9
68738.9
66605.2
72830
65153.3
65539.2
63906.4
63993.5
62830.1
62836.3
61907.9
6652.54
8095.04
13248.8
24297
39472.6
51288.7
61647.9
68873.1
73164.2
75272.5
76339.2
76342.1
76173.1
75297.7
74736.4
73498.3
72969
71525.3
71414.4
69626.8
76116.3
67932.8
68558.5
66462.7
66527.4
65181.1
65125.3
64074.6
63994.9
63126.5
6567.57
7865.86
12663.8
23189
38498.7
51248.9
61408.8
69422.3
74163.5
76529.2
77760.4
77831.7
77729.4
76849.2
76332.3
75040.4
74600.7
73034.8
73309.5
71103.7
77790
69377.1
69560
67871.1
67786.9
66554.3
66416.4
65416.5
65282.3
64441.3
6489.07
7646.43
12096.1
22044.3
37361.7
51379.9
61646.9
70031.1
75226.5
77864.8
79272.9
79422.5
79393.2
78513.5
78043.3
76696.4
76364
74654.6
76131.7
72702.8
73543.9
70946.5
70925.3
69392.2
69219.2
68035.3
67842.5
66863.3
66690.3
65858.8
6415.7
7437.31
11550
20878
36040
50620
62122.1
70632.9
76340.2
79280.9
80884.5
81126
81177.2
80304.6
79881
78479.7
78258.5
76383.3
83580.9
74391.4
74790
72611.1
72482.1
71020.6
70790.6
69627
69395.4
68421.3
68219.2
67386.8
6345.86
7238.93
11029.5
19707.1
34604.2
49635.1
61599.6
70777.9
77333.1
80707.8
82569.1
82938.9
83089.8
82235.8
81861.4
80417.1
80313.9
78286.7
85695.9
76251.1
76441.1
74425.6
74225.1
72789.3
72516.2
71353.2
71090.2
70109.3
69882.9
69041.2
6278.1
7051.61
10537.6
18544.7
33057.8
48406.3
61829.2
71448.8
78437.3
82197.1
84336.5
84866.3
85134.3
84314.6
83990.1
82513.8
82519
80351.4
87984.1
78269.5
78347.1
76394.4
76144.3
74708.2
74401.2
73225.5
72936.2
71939.9
71692.1
70835.2
6211.56
6875.53
10076.7
17404.8
31414.2
47519.6
60919.1
71922.9
79507.5
83728.6
86194.2
86922.9
87318.8
86554.2
86281.6
84786.2
84876
82594.1
90464.7
80463.2
80475.3
78534.6
78247.8
76794.4
76458.9
75261.1
74948
73929.8
73662.1
72784.9
6145.86
6710.86
9648.85
16300.1
29639.2
46859.7
60312.4
71696.4
80340.2
85242.4
88133.1
89115.9
89660.9
88974.1
88756.3
87255.8
87397.4
85036.6
93162.8
82854.2
82831.1
80868
80553.1
79069.1
78708.3
77480.2
77144.8
76098.8
75811.8
74909.7
6080.9
6557.77
9255
15245.6
27732.5
45187.1
60124.9
72162.4
81280.8
86860.9
90213.5
91482.2
92193.2
91602.8
91442.3
89948.9
90110
87704.9
96107.7
85468.1
85429.8
83419.8
83082.2
81556.7
81172.4
79907
79549.6
78470.4
78163.8
77232.4
6016.54
6416.04
8895.16
14256.2
25790.3
43178.3
60079.1
71451
81821
88473.9
92421.3
94037
94942.8
94472.7
94371.4
92895.8
93048.4
90629.2
99333.1
88334.8
88297
86219.4
85862.8
84286.1
83878.6
82569.2
82188.7
81071.5
80744.8
79779.5
5953.18
6285.27
8567.95
13340.9
23857.9
40802
58712
71395.4
81891.5
89917.9
94655.9
96735.2
97904.8
97596.7
97569
96126.7
96255.3
93843.8
102878
91489.4
91465.3
89301.3
88928.3
87291
86859.8
85499.7
85095.7
83934.2
83584.6
82581.9
5891.75
6164.93
8271.46
12505.5
21985.4
38204
56929.4
71714.5
82728.2
91563.8
97023
99617.7
101110
100989
101063
99675.6
99772.8
97389.1
106789
94973.3
94982.3
92706.4
92321.2
90610.8
90156.9
88736.8
88308.1
87095.6
86723
85675.7
5833.91
6054.32
8003.77
11752.1
20211.1
35449.2
54646.2
70716.3
84021.6
93339.9
99499.1
102683
104569
104686
104895
103588
103656
101314
111122
98836.1
98898.5
96483.5
96088.8
94293
93815.1
92326.5
91870.9
90599.8
90201.6
89103.6
5779.24
5953.64
7762.73
11080.1
18564.3
32614.7
51963.6
68718.6
83735.4
94594.3
101864
105857
108272
108711
109112
107913
107971
105676
115941
103138
103269
100693
100288
98396.1
97890.5
96325
95837.8
94501.4
94072.8
92918.6
5725.76
5863.67
7545.87
10486.7
17066.1
29777.1
48993.9
67133.4
82354.2
95621.1
104290
109233
112275
113122
113765
112712
112780
110545
121327
107952
108185
105405
104993
102989
102454
100799
100277
98864.8
98402.2
97183
5675.59
5786.09
7350.96
9967.56
15728.8
27004.6
45632.3
66256.4
82086.3
96904.6
106995
112932
116671
117998
118918
118058
118172
116012
127386
113370
113736
110709
110289
108156
107585
105828
105264
103766
103264
101970
5627.52
5718.78
7174.09
9517.39
14558
24378.7
41790.1
63384.2
81573.5
97721.6
109559
116788
121417
123351
124638
124041
124252
122198
129594
119518
120048
116708
116275
113992
113378
111505
110892
109297
108746
107370
5580.5
5660.07
7016.86
9130.18
13551.9
21985.9
37783.9
59725.4
81454.3
97353.5
111392
120536
126414
129170
130965
130697
131053
129139
132054
126444
127259
123481
123053
120592
119937
117932
117266
115561
114958
113487
5533.69
5601.14
6882.6
8798.62
12700.8
19873
33788.3
55035.1
78689.2
98223
112718
124183
131653
135488
137964
138116
138684
136935
138473
134257
135515
131163
130756
128100
127403
125253
124529
122701
122038
120461
5487.7
5547.96
6781.78
8514
11990.9
18063.3
30028.6
49775.4
74507.4
96534.5
113619
127804
137189
142379
145741
146463
147345
145802
146839
143174
145624
139958
139586
136717
135975
133667
132876
130911
130177
128480
5440.88
5497.15
6697.54
8272.41
11403.5
16552.8
26657.2
44261.7
69098.6
94041.3
113592
130716
142690
149753
154356
155892
157192
155947
156815
153413
161972
150092
149802
146690
145908
143422
142555
140434
139617
137781
5392.56
5446.43
6631.55
8077.33
10920.4
15319.9
23770.6
38869.6
62625.1
89972.6
114464
133243
148369
157752
163967
166603
168522
167722
168540
165392
181834
161986
161805
158412
157578
154885
153922
151617
150694
148693
5337.49
5388.53
6544.77
7930.8
10493.7
14267.8
21246.1
33632.7
54915.5
82896.1
110650
132035
152854
166119
174983
179395
182414
182298
183332
180492
198621
177059
177033
173236
172334
169355
168265
165709
164645
162420
5284.56
5334.22
6467.41
7839.06
10178.6
13519.6
19428.9
29545.9
47877.9
74996.9
105677
131097
156358
173856
185879
192562
197075
197922
199413
196964
217004
193607
193838
189549
188587
185283
184052
181210
179985
177506
5234.41
5282.41
6392.27
7730.27
9943.06
12981.1
18126.3
26460.3
41871
66709.3
98984.3
128733
158222
180660
196462
205991
212466
214643
216815
214905
237131
211774
212391
207486
206463
202793
201401
198234
196823
194052
5186.71
5233.33
6322.68
7640.76
9790.57
12586.4
17190.7
24178.6
37034.2
58794.1
90952.2
126423
156628
185263
206075
219370
228448
232405
235649
234562
240099
231832
232971
227208
226120
222017
220443
216908
215284
212185
5141.15
5186.66
6255.77
7559.62
9706.16
12300
16512.5
22509.6
33294.8
51754.9
81648.5
119357
156863
188341
214572
232487
244827
251002
255611
255403
258796
253313
255418
248568
247496
242957
241218
237302
235458
232008
5097.65
5143.69
6197.83
7475.72
9583.93
12085.1
16012.4
21293.5
30491.6
45951.4
72504.1
109717
150784
184948
218421
243553
260792
270175
276732
277747
281088
276599
282001
271862
270884
265895
264004
259686
257606
253774
5055.94
5105.25
6160.46
7438.38
9476.96
11934.5
15635.7
20404.4
28422.7
41386.4
64374.4
99467.2
143204
184623
221077
253457
276533
289978
299130
301784
305612
301812
331879
297249
296523
291114
289096
284359
282022
277767
5015.65
5069.42
6123.74
7411.89
9439.9
11827.7
15347.2
19748.5
26901.5
37887.4
57534.3
89271.4
133537
180121
225644
262565
292060
310416
322933
327831
332728
329904
364423
325733
325215
319269
317056
311807
309140
304380
4976.81
5033.9
6084.72
7348.93
9349.72
11700
15114.1
19256.5
25778.5
35248
52024.4
79832.5
122478
173592
223418
264518
304452
330115
347453
355512
362154
360553
399018
357123
356919
350401
347983
342170
339124
333789
4938.92
4999.15
6033.48
7286.59
9264.52
11585.1
14917
18879.9
24942.8
33275.1
47729.6
71630.8
110816
162855
218225
266694
315620
349621
372897
385017
394081
394049
437062
391784
392019
384897
382257
375821
372331
366344
4900.29
4960.95
5983.69
7226.5
9183.99
11480.1
14749.8
18585
24312.1
31805.7
44458.7
64876
99832.1
150545
209239
266074
319644
365875
397814
415813
428452
430678
479023
430192
431025
423235
420346
413205
409190
402448
4863.1
4924.22
5935.7
7168.59
9106.99
11382.3
14603
18346.9
23825.8
30710.2
42001.8
59491.2
90082.7
137772
201664
267947
325222
381679
422885
448056
465490
470844
525438
472897
474528
465931
462755
454790
450151
442524
4827.29
4889.03
5889.34
7112.76
9032.76
11289.9
14469.8
18147.8
23440
29889
40168.7
55305.5
81817.4
124664
187579
260103
328797
394890
447234
481314
505054
514830
535519
520467
523055
513392
509899
500985
495627
486982
4792.9
4855.32
5844.7
7058.94
8961.13
11201.7
14346.4
17975.4
23125
29266
38797.1
52116.3
75177.2
112855
172477
249009
330403
405246
470379
515129
546463
561452
578607
571910
576252
565583
561946
552100
545995
536241
4760.04
4823.07
5801.95
7007.11
8892.26
11117.1
14230.9
17821.6
22862
28784.4
37758
49707
69983.2
102709
157221
233719
322251
404005
486861
546888
588855
611030
629901
628291
635283
623457
619805
608988
602060
591051
4728.75
4792.24
5761.19
6957.24
8826.28
11035.7
14122.4
17681
22638
28402.7
36961.2
47894.6
66005.8
94363.8
143058
216660
311220
409372
499168
576501
631831
663467
687345
690062
704056
687656
684246
672441
664631
652197
4699.01
4762.78
5722.37
6909.27
8763.19
10957.3
14020
17549.9
22443.4
28090.9
36345