/*--------------------------------*- C++ -*----------------------------------*\
| =========                 |                                                 |
| \\      /  F ield         | OpenFOAM: The Open Source CFD Toolbox           |
|  \\    /   O peration     | Version:  2312                                  |
|   \\  /    A nd           | Website:  www.openfoam.com                      |
|    \\/     M anipulation  |                                                 |
\*---------------------------------------------------------------------------*/
FoamFile
{
    version     2.0;
    format      ascii;
    arch        "LSB;label=32;scalar=64";
    class       volScalarField;
    location    "20000";
    object      gammaInt;
}
// * * * * * * * * * * * * * * * * * * * * * * * * * * * * * * * * * * * * * //

dimensions      [0 0 0 0 0 0 0];

internalField   nonuniform List<scalar> 
29400
(
0.154006
0.0991891
0.0719089
0.0586183
0.0508845
0.0458387
0.0422921
0.0396864
0.0377095
0.0361687
0.0349406
0.0339435
0.0331217
0.0324359
0.0318578
0.0313661
0.030945
0.0305818
0.030267
0.0299927
0.0297527
0.0295419
0.0293562
0.029192
0.0290465
0.0289172
0.0288021
0.0286995
0.028608
0.0285248
0.205025
0.137015
0.0993754
0.0805516
0.0695066
0.0621182
0.0567964
0.0527953
0.0496944
0.0472304
0.0452321
0.0435848
0.0422091
0.0410483
0.0400604
0.0392136
0.0384831
0.0378496
0.0372975
0.0368142
0.0363896
0.0360152
0.0356841
0.0353903
0.0351289
0.0348958
0.0346875
0.034501
0.0343337
0.0341833
0.325163
0.228988
0.167966
0.136432
0.11752
0.104453
0.0947669
0.0873016
0.0813793
0.0765696
0.0725913
0.0692558
0.0664305
0.0640186
0.0619461
0.0601556
0.0586011
0.0572459
0.0560597
0.0550176
0.054099
0.053287
0.052567
0.0519265
0.0513554
0.0508451
0.0503885
0.0499794
0.049612
0.0492817
0.527457
0.39879
0.30197
0.250288
0.217793
0.194391
0.176563
0.162508
0.151093
0.141598
0.133568
0.126705
0.120799
0.11569
0.111254
0.107389
0.10401
0.101049
0.0984458
0.0961511
0.0941231
0.0923271
0.090729
0.0893036
0.0880306
0.0868924
0.0858737
0.0849606
0.0841413
0.0834048
0.756481
0.62978
0.505049
0.43664
0.388994
0.352734
0.324445
0.301668
0.282655
0.266344
0.252136
0.239671
0.2287
0.219031
0.210504
0.202978
0.19633
0.19045
0.185244
0.180629
0.17653
0.172885
0.169636
0.166735
0.164141
0.161819
0.159738
0.157872
0.156196
0.15469
0.883914
0.830119
0.72149
0.661261
0.60786
0.564621
0.530667
0.502988
0.479188
0.457996
0.438834
0.421437
0.405648
0.391349
0.37843
0.366784
0.356303
0.346882
0.338422
0.330828
0.324012
0.317893
0.312404
0.307477
0.30305
0.299071
0.295493
0.292275
0.289379
0.286778
0.942142
0.938211
0.881524
0.858722
0.813856
0.775018
0.745944
0.722567
0.701972
0.68292
0.664999
0.648103
0.632215
0.617342
0.603483
0.590629
0.578754
0.567825
0.557797
0.54862
0.540239
0.532601
0.525646
0.519323
0.513586
0.508395
0.503708
0.499482
0.495676
0.492255
0.987656
0.99314
0.956617
0.956154
0.91876
0.892295
0.875183
0.861876
0.850044
0.838988
0.82853
0.818631
0.809289
0.800507
0.792285
0.784617
0.777492
0.770895
0.764804
0.759195
0.754042
0.749321
0.744986
0.741052
0.737538
0.734433
0.731702
0.729303
0.727195
0.725328
0.997735
0.998095
0.996745
0.995596
0.956978
0.941297
0.932386
0.925045
0.918291
0.911954
0.905996
0.900409
0.895194
0.890353
0.885886
0.881786
0.878044
0.874642
0.871562
0.868783
0.86628
0.864038
0.861986
0.860373
0.859247
0.858491
0.857998
0.857693
0.857526
0.857455
0.999714
0.999437
0.998239
0.997718
0.996668
0.995316
0.994323
0.993738
0.993471
0.993388
0.993395
0.993434
0.993479
0.993516
0.993541
0.993552
0.99355
0.993538
0.993518
0.993493
0.993465
0.993435
0.993395
0.993323
0.993253
0.99319
0.993132
0.993078
0.993029
0.99296
0.999972
0.999869
0.998774
0.998136
0.997698
0.997321
0.996995
0.996726
0.996516
0.996361
0.996253
0.99618
0.996132
0.996098
0.996072
0.996048
0.996026
0.996002
0.995977
0.995951
0.995925
0.995898
0.995872
0.995846
0.995822
0.995798
0.995776
0.995756
0.995738
0.995708
0.999998
0.999976
0.999204
0.998556
0.998127
0.997791
0.997525
0.997328
0.997198
0.997129
0.997106
0.997118
0.997148
0.997186
0.997225
0.997261
0.997293
0.997322
0.997345
0.997365
0.997383
0.997399
0.997414
0.997443
0.997468
0.997489
0.997507
0.997523
0.997537
0.997534
1
0.999997
0.999528
0.998947
0.998555
0.998279
0.9981
0.998008
0.997993
0.998037
0.998117
0.998277
0.998452
0.998606
0.998737
0.998846
0.998937
0.999007
0.999044
0.999077
0.999107
0.999135
0.999161
0.999185
0.999207
0.999228
0.999247
0.999265
0.999282
0.999296
1
1
0.999754
0.999296
0.998977
0.998802
0.998787
0.998863
0.998995
0.999151
0.999272
0.999369
0.999456
0.999531
0.999593
0.999645
0.999687
0.999722
0.999751
0.999775
0.999796
0.999814
0.999829
0.999842
0.999854
0.999864
0.999873
0.999881
0.999888
0.999894
1
1
0.999893
0.999633
0.99948
0.999408
0.999405
0.999468
0.999567
0.999672
0.999762
0.999832
0.999881
0.999916
0.999939
0.999956
0.999967
0.999974
0.99998
0.999984
0.999987
0.999989
0.999991
0.999992
0.999994
0.999994
0.999995
0.999996
0.999996
0.999997
1
1
0.99997
0.99983
0.999713
0.999682
0.999725
0.999803
0.999879
0.999934
0.999967
0.999984
0.999992
0.999996
0.999998
0.999999
0.999999
1
1
1
1
1
1
1
1
1
1
1
1
1
1
1
0.999993
0.999929
0.999875
0.99988
0.999921
0.999962
0.999986
0.999996
0.999999
1
1
1
1
1
1
1
1
1
1
1
1
1
1
1
1
1
1
1
1
1
0.999999
0.99998
0.999964
0.999973
0.999989
0.999997
1
1
1
1
1
1
1
1
1
1
1
1
1
1
1
1
1
1
1
1
1
1
1
1
1
0.999997
0.999994
0.999997
1
1
1
1
1
1
1
1
1
1
1
1
1
1
1
1
1
1
1
1
1
1
1
1
1
1
1
1
1
1
1
1
1
1
1
1
1
1
1
1
1
1
1
1
1
1
1
1
1
1
1
1
1
1
1
1
1
1
1
1
1
1
1
1
1
1
1
1
1
1
1
1
1
1
1
1
1
1
1
1
1
1
1
1
1
1
1
1
1
1
1
1
1
1
1
1
1
1
1
1
1
1
1
1
1
1
1
1
1
1
1
1
1
1
1
1
1
1
1
1
1
1
1
1
1
1
1
1
1
1
1
1
1
1
1
1
1
1
1
1
1
1
1
1
1
1
1
1
1
1
1
1
1
1
1
1
1
1
1
1
1
1
1
1
1
1
1
1
1
1
1
1
1
1
1
1
1
1
1
1
1
1
1
1
1
1
1
1
1
1
1
1
1
1
1
1
1
1
1
1
1
1
1
1
1
1
1
1
1
1
1
1
1
1
1
1
1
1
1
1
1
1
1
1
1
1
1
1
1
1
1
1
1
1
1
1
1
1
1
1
1
1
1
1
1
1
1
1
1
1
1
1
1
1
1
1
1
1
1
1
1
1
1
1
1
1
1
1
1
1
1
1
1
1
1
1
1
1
1
1
1
1
1
1
1
1
1
1
1
1
1
1
1
1
1
1
1
1
1
1
1
1
1
1
1
1
1
1
1
1
1
1
1
1
1
1
1
1
1
1
1
1
1
1
1
1
1
1
1
1
1
1
1
1
1
1
1
1
1
1
1
1
1
1
1
1
1
1
1
1
1
1
1
1
1
1
1
1
1
1
1
1
1
1
1
1
1
1
1
1
1
1
1
1
1
1
1
1
1
1
1
1
1
1
1
1
1
1
1
1
1
1
1
1
1
1
1
1
1
1
1
1
1
1
1
1
1
1
1
1
1
1
1
1
1
1
1
1
1
1
1
1
1
1
1
1
1
1
1
1
1
1
1
1
1
1
1
1
1
1
1
1
1
1
1
1
1
1
1
1
1
1
1
1
1
1
1
1
1
1
1
1
1
1
1
1
1
1
1
1
1
1
1
1
1
1
1
1
1
1
1
1
1
1
1
1
1
1
1
1
1
1
1
1
1
1
1
1
1
1
1
1
1
1
1
1
1
1
1
1
1
1
1
1
1
1
1
1
1
1
1
1
1
1
1
1
1
1
1
1
1
1
1
1
1
1
1
1
1
1
1
1
1
1
1
1
1
1
1
1
1
1
1
1
1
1
1
1
1
1
1
1
1
1
1
1
1
1
1
1
1
1
1
1
1
1
1
1
1
1
1
1
1
1
1
1
1
1
1
1
1
1
1
1
1
1
1
1
1
1
1
1
1
1
1
1
1
1
1
1
1
1
1
1
1
1
1
1
1
1
1
1
1
1
1
1
1
1
1
1
1
1
1
1
1
1
1
1
1
1
1
1
1
1
1
1
1
1
1
1
1
1
1
1
1
1
1
1
1
1
1
1
1
1
1
1
1
1
1
1
1
1
1
1
1
1
1
1
1
1
1
1
1
1
1
1
1
1
1
1
1
1
1
1
1
1
1
1
1
1
1
1
1
1
1
1
1
1
1
1
1
1
1
1
1
1
1
1
1
1
1
1
1
1
1
1
1
1
1
1
1
1
1
1
1
1
1
1
1
1
1
1
1
1
1
1
1
1
1
1
1
1
1
1
1
1
1
1
1
1
1
1
1
1
1
1
1
1
1
1
1
1
1
1
1
1
1
1
1
1
1
1
1
1
1
1
1
1
1
1
1
1
1
1
1
1
1
1
1
1
1
1
1
1
1
1
1
1
1
1
1
1
1
1
1
1
1
1
1
1
1
1
1
1
1
1
1
1
1
1
1
1
1
1
1
1
1
1
1
1
1
1
1
1
1
1
1
1
1
1
1
1
1
1
1
1
1
1
1
1
1
1
1
1
1
1
1
1
1
1
1
1
1
1
1
1
1
1
1
1
1
1
1
1
1
1
1
1
1
1
1
1
1
1
1
1
1
1
1
1
1
1
1
1
1
1
1
1
1
1
1
1
1
1
1
1
1
1
1
1
1
1
1
1
1
1
1
1
1
1
1
1
1
1
1
1
1
1
1
1
1
1
1
1
1
1
1
1
1
1
1
1
1
1
1
1
1
1
1
1
1
1
1
1
1
1
1
1
1
1
1
1
1
1
1
1
1
1
1
1
1
1
1
1
1
1
1
1
1
1
1
1
1
1
1
1
1
1
1
1
1
1
1
1
1
1
1
1
1
1
1
1
1
1
1
1
1
1
1
1
1
1
1
1
1
1
1
1
1
1
1
1
1
1
1
1
1
1
1
1
1
1
1
1
1
1
1
1
1
1
1
1
1
1
1
1
1
1
1
1
1
1
1
1
1
1
1
1
1
1
1
1
1
1
1
1
1
1
1
1
1
1
1
1
1
1
1
1
1
1
1
1
1
1
1
1
1
1
1
1
1
1
1
1
1
1
1
1
1
1
1
1
1
1
1
1
1
1
1
1
1
1
1
1
1
1
1
1
1
1
1
1
1
1
1
1
1
1
1
1
1
1
1
1
1
1
1
1
1
1
1
1
1
1
1
1
1
1
1
1
1
1
1
1
1
1
1
1
1
1
1
1
1
1
1
1
1
1
1
1
1
1
1
1
1
1
1
1
1
1
1
1
1
1
1
1
1
1
1
1
1
1
1
1
1
1
1
1
1
1
1
1
1
1
1
1
1
1
1
1
1
1
1
1
1
1
1
1
1
1
1
1
1
1
1
1
1
1
1
1
1
1
1
1
1
1
1
1
1
1
1
1
1
1
1
1
1
1
1
1
1
1
1
1
1
1
1
1
1
1
1
1
1
1
1
1
1
1
1
1
1
1
1
1
1
1
1
1
1
1
1
1
1
1
1
1
1
1
1
1
1
1
1
1
1
1
1
1
1
1
1
1
1
1
1
1
1
1
1
1
1
1
1
1
1
1
1
1
1
1
1
1
1
1
1
1
1
1
1
1
1
1
1
1
1
1
1
1
1
1
1
1
1
1
1
1
1
1
1
1
1
1
1
1
1
1
1
1
1
1
1
1
1
1
1
1
1
1
1
1
1
1
1
1
1
1
1
1
1
1
1
1
1
1
1
1
1
1
1
1
1
1
1
1
1
1
1
1
1
1
1
1
1
1
1
1
1
1
1
1
1
1
1
1
1
1
1
1
1
1
1
1
1
1
1
1
1
1
1
1
1
1
1
1
1
1
1
1
1
1
1
1
1
1
1
1
1
1
1
1
1
1
1
1
1
1
1
1
1
1
1
1
1
1
1
1
1
1
1
1
1
1
1
1
1
1
1
1
1
1
1
1
1
1
1
1
1
1
1
1
1
1
1
1
1
1
1
1
1
1
1
1
1
1
1
1
1
1
1
1
1
1
1
1
1
1
1
1
1
1
1
1
1
1
1
1
1
1
1
1
1
1
1
1
1
1
1
1
1
1
1
1
1
1
1
1
1
1
1
1
1
1
1
1
1
1
1
1
1
1
1
1
1
1
1
1
1
1
1
1
1
1
1
1
1
1
1
1
1
1
1
1
1
1
1
1
1
1
1
1
1
1
1
1
1
1
1
1
1
1
1
1
1
1
1
1
1
1
1
1
1
1
1
1
1
1
1
1
1
1
1
1
1
1
1
1
1
1
1
1
1
1
1
1
1
1
1
1
1
1
1
1
1
1
1
1
1
1
1
1
1
1
1
1
1
1
1
1
1
1
1
1
1
1
1
1
1
1
1
1
1
1
1
1
1
1
1
1
1
1
1
1
1
1
1
1
1
1
1
1
1
1
1
1
1
1
1
1
1
1
1
1
1
1
1
1
1
1
1
1
1
1
1
1
1
1
1
1
1
1
1
1
1
1
1
1
1
1
1
1
1
1
1
1
1
1
1
1
1
1
1
1
1
1
1
1
1
1
1
1
1
1
1
1
1
1
1
1
1
1
1
1
1
1
1
1
1
1
1
1
1
1
1
1
1
1
1
1
1
1
1
1
1
1
1
1
1
1
1
1
1
1
1
1
1
1
1
1
1
1
1
1
1
1
1
1
1
1
1
1
1
1
1
1
1
1
1
1
1
1
1
1
1
1
1
1
1
1
1
1
1
1
1
1
1
1
1
1
1
1
1
1
1
1
1
1
1
1
1
1
1
1
1
1
1
1
1
1
1
1
1
1
1
1
1
1
1
1
1
1
1
1
1
1
1
1
1
1
1
1
1
1
1
1
1
1
1
1
1
1
1
1
1
1
1
1
1
1
1
1
1
1
1
1
1
1
1
1
1
1
1
1
1
1
1
1
1
1
1
1
1
1
1
1
1
1
1
1
1
1
1
1
1
1
1
1
1
1
1
1
1
1
1
1
1
1
1
1
1
1
1
1
1
1
1
1
1
1
1
1
1
1
1
1
1
1
1
1
1
1
1
1
1
1
1
1
1
1
1
1
1
1
1
1
1
1
1
1
1
1
1
1
1
1
1
1
1
1
1
1
1
1
1
1
1
1
1
1
1
1
1
1
1
1
1
1
1
1
1
1
1
1
1
1
1
1
1
1
1
1
1
1
1
1
1
1
1
1
1
1
1
1
1
1
1
1
1
1
1
1
1
1
1
1
1
1
1
1
1
1
1
1
1
1
1
1
1
1
1
1
1
1
1
1
1
1
1
1
1
1
1
1
1
1
1
1
1
1
1
1
1
1
1
1
1
1
1
1
1
1
1
1
1
1
1
1
1
1
1
1
1
1
1
1
1
1
1
1
1
1
1
1
1
1
1
1
1
1
1
1
1
1
1
1
1
1
1
1
1
1
1
1
1
1
1
1
1
1
1
1
1
1
1
1
1
1
1
1
1
1
1
1
1
1
1
1
1
1
1
1
1
1
1
1
1
1
1
1
1
1
1
1
1
1
1
1
1
1
1
1
1
1
1
1
1
1
1
1
1
1
1
1
1
1
1
1
1
1
1
1
1
1
1
1
1
1
1
1
1
1
1
1
1
1
1
1
1
1
1
1
1
1
1
1
1
1
1
1
1
1
1
1
1
1
1
1
1
1
1
1
1
1
1
1
1
1
1
1
1
1
1
1
1
1
1
1
1
1
1
1
1
1
1
1
1
1
1
1
1
1
1
1
1
1
1
1
1
1
1
1
1
1
1
1
1
1
1
1
1
1
1
1
1
1
1
1
1
1
1
1
1
1
1
1
1
1
1
1
1
1
1
1
1
1
1
1
1
1
1
1
1
1
1
1
1
1
1
1
1
1
1
1
1
1
1
1
1
1
1
1
1
1
1
1
1
1
1
1
1
1
1
1
1
1
1
1
1
1
1
1
1
1
1
1
1
1
1
1
1
1
1
1
1
1
1
1
1
1
1
1
1
1
1
1
1
1
1
1
1
1
1
1
1
1
1
1
1
1
1
1
1
1
1
1
1
1
1
1
1
1
1
1
1
1
1
1
1
1
1
1
1
1
1
1
1
1
1
1
1
1
1
1
1
1
1
1
1
1
1
1
1
1
1
1
1
1
1
1
1
1
1
1
1
1
1
1
1
1
1
1
1
1
1
1
1
1
1
1
1
1
1
1
1
1
1
1
1
1
1
1
1
1
1
1
1
1
1
1
1
1
1
1
1
1
1
1
1
1
1
1
1
1
1
1
1
1
1
1
1
1
1
1
1
1
1
1
1
1
1
1
1
1
1
1
1
1
1
1
1
1
1
1
1
1
1
1
1
1
1
1
1
1
1
1
1
1
1
1
1
1
1
1
1
1
1
1
1
1
1
1
1
1
1
1
1
1
1
1
1
1
1
1
1
1
1
1
1
1
1
1
1
1
1
1
1
1
1
1
1
1
1
1
1
1
1
1
1
1
1
1
1
1
1
1
1
1
1
1
1
1
1
1
1
1
1
1
1
1
1
1
1
1
1
1
1
1
1
1
1
1
1
1
1
1
1
1
1
1
1
1
1
1
1
1
1
1
1
1
1
1
1
1
1
1
1
1
1
1
1
1
1
1
1
1
1
1
1
1
1
1
1
1
1
1
1
1
1
1
1
1
1
1
1
1
1
1
1
1
1
1
1
1
1
1
1
1
1
1
1
1
1
1
1
1
1
1
1
1
1
1
1
1
1
1
1
1
1
1
1
1
1
1
1
1
1
1
1
1
1
1
1
1
1
1
1
1
1
1
1
1
1
1
1
1
1
1
1
1
1
1
1
1
1
1
1
1
1
1
1
1
1
1
1
1
1
1
1
1
1
1
1
1
1
1
1
1
1
1
1
1
1
1
1
1
1
1
1
1
1
1
1
1
1
1
1
1
1
1
1
1
1
1
1
1
1
1
1
1
1
1
1
1
1
1
1
1
1
1
1
1
1
1
1
1
1
1
1
1
1
1
1
1
1
1
1
1
1
1
1
1
1
1
1
1
1
1
1
1
1
1
1
1
1
1
1
1
1
1
1
1
1
1
1
1
1
1
1
1
1
1
1
1
1
1
1
1
1
1
1
1
1
1
1
1
1
1
1
1
1
1
1
1
1
1
1
1
1
1
1
1
1
1
1
1
1
1
1
1
1
1
1
1
1
1
1
1
1
1
1
1
1
1
1
1
1
1
1
1
1
1
1
1
1
1
1
1
1
1
1
1
1
1
1
1
1
1
1
1
1
1
1
1
1
1
1
1
1
1
1
1
1
1
1
1
1
1
1
1
1
1
1
1
1
1
1
1
1
1
1
1
1
1
1
1
1
1
1
1
1
1
1
1
1
1
1
1
1
1
1
1
1
1
1
1
1
1
1
1
1
1
1
1
1
1
1
1
1
1
1
1
1
1
1
1
1
1
1
1
1
1
1
1
1
1
1
1
1
1
1
1
1
1
1
1
1
1
1
1
1
1
1
1
1
1
1
1
1
1
1
1
1
1
1
1
1
1
1
1
1
1
1
1
1
1
1
1
1
1
1
1
1
1
1
1
1
1
1
1
1
1
1
1
1
1
1
1
1
1
1
1
1
1
1
1
1
1
1
1
1
1
1
1
1
1
1
1
1
1
1
1
1
1
1
1
1
1
1
1
1
1
1
1
1
1
1
1
1
1
1
1
1
1
1
1
1
1
1
1
1
1
1
1
1
1
1
1
1
1
1
1
1
1
1
1
1
1
1
1
1
1
1
1
1
1
1
1
1
1
1
1
1
1
1
1
1
1
1
1
1
1
1
1
1
1
1
1
1
1
1
1
1
1
1
1
1
1
1
1
1
1
1
1
1
1
1
1
1
1
1
1
1
1
1
1
1
1
1
1
1
1
1
1
1
1
1
1
1
1
1
1
1
1
1
1
1
1
1
1
1
1
1
1
1
1
1
1
1
1
1
1
1
1
1
1
1
1
1
1
1
1
1
1
1
1
1
1
1
1
1
1
1
1
1
1
1
1
1
1
1
1
1
1
1
1
1
1
1
1
1
1
1
1
1
1
1
1
1
1
1
1
1
1
1
1
1
1
1
1
1
1
1
1
1
1
1
1
1
1
1
1
1
1
1
1
1
1
1
1
1
1
1
1
1
1
1
1
1
1
1
1
1
1
1
1
1
1
1
1
1
1
1
1
1
1
1
1
1
1
1
1
1
1
1
1
1
1
1
1
1
1
1
1
1
1
1
1
1
1
1
1
1
1
1
1
1
1
1
1
1
1
1
1
1
1
1
1
1
1
1
1
1
1
1
1
1
1
1
1
1
1
1
1
1.00001
1.00001
1
1
1
1
1
1
1
1
1
1
1
1
1
1
1
1
1
1
1
1
1
1
1
1
1
1
1
0.999993
0.999957
0.999811
1
1
1
1
1
1
1
1
1
1
1
1
1
1
1
1
1
1
1
1
1
1
1
1
1
0.999976
0.99968
0.998742
0.996988
0.993941
1
1
1
1
1
1
1
1
1
1
1
1
1
1
1
1
1
1
1
1
1
1
1
1
0.999997
0.999768
0.997189
0.991101
0.98417
0.978216
1
1
1
1
1
1
1
1
1
1
1
1
1
1
1
1
1
1
1
1
1
1
1
1
0.999988
0.999077
0.991675
0.981039
0.973012
0.964709
1
1
1
1
1
1
1
1
1
1
1
1
1
1
1
1
1
1
1
1
1
1
1
1
0.99997
0.997725
0.985449
0.975081
0.963039
0.958617
1
1
1
1
1
1
1
1
1
1
1
1
1
1
1
1
1
1
1
1
1
1
1
0.999999
0.99994
0.995721
0.980363
0.967844
0.960248
0.958225
1
1
1
1
1
1
1
1
1
1
1
1
1
1
1
1
1
1
1
1
1
1
1
0.999999
0.999905
0.993577
0.977098
0.963965
0.960515
0.959445
0.0284296
0.0283201
0.0282119
0.0281048
0.0279985
0.0278932
0.0277888
0.0276855
0.0275833
0.0274824
0.0273828
0.0272847
0.027188
0.0270928
0.0269994
0.0269079
0.0268187
0.0267325
0.0266501
0.0265719
0.0264984
0.0264293
0.0263642
0.0263022
0.0262424
0.0261838
0.0261257
0.0260676
0.026009
0.0259501
0.0258909
0.0258317
0.0257728
0.0257147
0.0256578
0.0256025
0.0255492
0.0254979
0.0254491
0.0254029
0.0253595
0.025319
0.0252815
0.0252471
0.0252158
0.0251877
0.0251631
0.0251421
0.025125
0.0251118
0.0251026
0.025097
0.0250949
0.0250958
0.0250998
0.0251069
0.0251172
0.0251307
0.0251477
0.0251681
0.0251919
0.0252194
0.0252491
0.0252843
0.0253191
0.02535
0.0254069
0.0255288
0.0256974
0.0258791
0.0260575
0.0262176
0.0263569
0.0264892
0.0266247
0.0267607
0.0268997
0.0270427
0.0271893
0.027343
0.0275087
0.0276872
0.0278766
0.0280744
0.0282762
0.0284812
0.0286987
0.0289333
0.0291765
0.029419
0.0296647
0.0299256
0.0302056
0.030489
0.0307663
0.031051
0.0313559
0.031666
0.0319609
0.0322397
0.0325126
0.0327869
0.0330658
0.0333522
0.0336478
0.0339521
0.0342627
0.0345802
0.0349114
0.0352426
0.0355429
0.0358357
0.0352248
0.0346529
0.0346794
0.03501
0.0353729
0.0357171
0.0360578
0.0364045
0.0367598
0.037124
0.0374948
0.0368375
0.0362641
0.0363354
0.0366934
0.0370678
0.0374238
0.0377791
0.0381702
0.0383629
0.0377445
0.0373535
0.0375253
0.0379033
0.0382823
0.0386583
0.0390105
0.0384377
0.0380036
0.038149
0.0385234
0.0388975
0.039351
0.0390555
0.038582
0.0385788
0.0388968
0.0392656
0.0397295
0.0393329
0.0389069
0.0389922
0.0393329
0.0396956
0.0401052
0.0396513
0.0392784
0.0394195
0.0397619
0.0402174
0.0398087
0.0394371
0.0395568
0.0398776
0.0402819
0.0400508
0.0396687
0.0396527
0.0398817
0.0401954
0.0401691
0.0397357
0.0395103
0.0396082
0.0397534
0.0399455
0.0392828
0.039066
0.0340161
0.0338242
0.0336324
0.0334414
0.0332515
0.0330631
0.0328762
0.032691
0.0325078
0.0323266
0.0321475
0.0319708
0.0317966
0.031625
0.0314563
0.0312909
0.03113
0.0309747
0.0308262
0.0306853
0.0305522
0.0304263
0.0303065
0.0301909
0.030078
0.0299661
0.0298542
0.0297415
0.0296277
0.0295129
0.0293975
0.029282
0.029167
0.0290534
0.0289419
0.0288331
0.0287274
0.0286253
0.0285272
0.0284333
0.0283439
0.0282593
0.0281795
0.0281045
0.0280345
0.0279695
0.02791
0.0278562
0.0278085
0.027767
0.0277314
0.0277013
0.0276761
0.0276555
0.0276394
0.0276278
0.0276209
0.0276189
0.0276219
0.0276299
0.0276427
0.0276607
0.0276819
0.0277113
0.0277387
0.0277604
0.0278259
0.0279982
0.0282378
0.0284855
0.0287237
0.0289341
0.0291123
0.0292788
0.0294503
0.0296229
0.0298003
0.0299832
0.0301704
0.0303668
0.0305804
0.0308132
0.0310622
0.0313235
0.0315907
0.0318616
0.0321497
0.0324634
0.0327897
0.0331128
0.0334373
0.0337827
0.0341574
0.0345358
0.0349006
0.0352718
0.0356689
0.0360672
0.0364342
0.0367683
0.0370856
0.0373981
0.0377116
0.0380307
0.0383582
0.0386927
0.0390306
0.0393729
0.0397212
0.040055
0.0403377
0.0405981
0.0395518
0.0386277
0.0385529
0.0388791
0.0392387
0.039569
0.0398912
0.0402179
0.0405525
0.0408952
0.0412388
0.0402289
0.0393789
0.0393669
0.0397081
0.0400637
0.0403937
0.0407209
0.0410899
0.0412085
0.0403376
0.0397734
0.0398925
0.0402521
0.0406094
0.0409614
0.0412823
0.0405161
0.0399354
0.0400321
0.0403887
0.0407426
0.0411854
0.0407724
0.0401717
0.0401094
0.040406
0.0407572
0.0412127
0.0407111
0.0401893
0.0402353
0.0405602
0.0409079
0.0413059
0.0407639
0.0403192
0.040433
0.0407629
0.0412131
0.0407358
0.0403056
0.0404023
0.0407127
0.0411114
0.040835
0.0404045
0.0403643
0.0405826
0.04089
0.0408405
0.0403662
0.0401141
0.0402005
0.0403389
0.0405214
0.0398242
0.0395675
0.0489152
0.0484953
0.0480765
0.0476594
0.047245
0.0468336
0.0464256
0.0460215
0.0456215
0.0452259
0.044835
0.0444492
0.0440687
0.0436939
0.043326
0.0429674
0.0426212
0.0422903
0.0419769
0.0416811
0.0414013
0.041134
0.0408749
0.0406197
0.0403651
0.0401084
0.039848
0.0395837
0.0393156
0.0390448
0.0387727
0.038501
0.0382312
0.0379651
0.037704
0.0374492
0.0372014
0.0369612
0.0367294
0.0365063
0.0362926
0.0360884
0.0358938
0.0357086
0.035533
0.0353676
0.0352131
0.0350703
0.0349395
0.0348203
0.0347119
0.0346129
0.0345225
0.0344401
0.0343657
0.0342996
0.0342421
0.0341935
0.0341539
0.0341232
0.0341009
0.0340876
0.0340789
0.0340875
0.0340837
0.034078
0.0341857
0.0345347
0.034989
0.0354055
0.0357831
0.0361102
0.0363766
0.0366217
0.0368767
0.0371378
0.0374117
0.0376964
0.0379861
0.0382891
0.0386235
0.0389941
0.0393937
0.0398152
0.040247
0.0406835
0.0411504
0.0416665
0.0422072
0.0427367
0.0432608
0.0438208
0.0444399
0.0450644
0.0456514
0.0462392
0.0468647
0.0474771
0.0480151
0.048477
0.0488947
0.0492917
0.04968
0.0500684
0.0504619
0.0508576
0.0512488
0.0516368
0.052006
0.0523184
0.0525247
0.0526464
0.0502918
0.0484536
0.0481572
0.0484683
0.0487985
0.0490739
0.0493319
0.049591
0.0498564
0.0501285
0.0503709
0.0483787
0.0468419
0.0466431
0.0469361
0.0472306
0.0474838
0.0477305
0.0480337
0.0479433
0.0464162
0.0454385
0.0454375
0.0457463
0.0460419
0.0463286
0.0465616
0.0453052
0.04438
0.0443672
0.0446777
0.044978
0.0453893
0.0446825
0.0437825
0.0435868
0.0438326
0.0441393
0.0445706
0.0438144
0.0430723
0.0430311
0.0433184
0.0436291
0.0439971
0.0432461
0.0426394
0.0426932
0.0429933
0.0434292
0.0427908
0.0422295
0.0422761
0.0425622
0.0429466
0.0425641
0.0420251
0.0419322
0.0421266
0.042419
0.0423153
0.041749
0.0414379
0.0414992
0.0416216
0.0417825
0.0410057
0.0406643
0.0825879
0.081654
0.0807238
0.0797991
0.0788812
0.0779707
0.0770686
0.0761754
0.0752917
0.0744182
0.0735557
0.0727047
0.0718661
0.0710434
0.0702447
0.0694801
0.068759
0.0680857
0.0674578
0.0668669
0.0663005
0.0657453
0.065189
0.0646225
0.0640405
0.0634409
0.0628246
0.062194
0.0615531
0.0609065
0.0602587
0.0596141
0.0589768
0.0583506
0.0577379
0.0571401
0.0565585
0.055994
0.0554481
0.0549219
0.0544158
0.0539295
0.0534624
0.0530143
0.0525863
0.0521805
0.0517988
0.0514423
0.0511103
0.0508004
0.0505091
0.0502336
0.0499727
0.049726
0.0494944
0.0492787
0.0490798
0.0488981
0.0487334
0.048585
0.0484511
0.0483332
0.048221
0.048151
0.0480182
0.0479596
0.048257
0.0491408
0.0501245
0.050869
0.0514927
0.0520287
0.0524454
0.0528257
0.0532225
0.0536426
0.054104
0.0545902
0.0550821
0.0555927
0.0561655
0.0568112
0.0575089
0.0582424
0.0589925
0.059751
0.0605738
0.0614981
0.0624726
0.0634141
0.0643338
0.0653233
0.066441
0.0675642
0.0685901
0.0696045
0.0706686
0.0716724
0.0725136
0.0731944
0.0737807
0.0743165
0.0748243
0.0753212
0.0758152
0.0763005
0.0767637
0.077208
0.0775675
0.0777674
0.0777327
0.0773979
0.0716347
0.0678641
0.0672181
0.0674956
0.0677272
0.0678586
0.0679591
0.0680548
0.0681541
0.0682561
0.0682181
0.0639229
0.061012
0.0604963
0.0606847
0.0608326
0.060913
0.060983
0.0611369
0.0605688
0.0576401
0.0558733
0.0556596
0.0558589
0.0560192
0.0561666
0.0562037
0.0539403
0.0523722
0.0521667
0.052383
0.0525715
0.0529113
0.0516162
0.0501563
0.049724
0.0498744
0.0500922
0.0504696
0.0492224
0.0480825
0.0478896
0.0481063
0.0483453
0.0486521
0.0475109
0.0466191
0.0465699
0.046815
0.0472203
0.0462863
0.0454971
0.0454585
0.0457004
0.0460566
0.0454817
0.0447543
0.0445723
0.0447249
0.0449891
0.044788
0.0440612
0.0436503
0.043669
0.0437626
0.0438854
0.042968
0.0424884
0.153026
0.151128
0.14924
0.147364
0.145502
0.143657
0.141828
0.140018
0.138227
0.136459
0.134714
0.132995
0.131315
0.129708
0.128214
0.126862
0.125655
0.124566
0.123552
0.122564
0.121555
0.120495
0.119363
0.118154
0.11687
0.11552
0.114119
0.112679
0.111218
0.109746
0.108278
0.106823
0.10539
0.103987
0.102613
0.101269
0.0999586
0.0986847
0.0974516
0.0962609
0.0951098
0.0939952
0.0929148
0.0918713
0.0908718
0.0899237
0.0890296
0.0881883
0.0873926
0.0866312
0.0858947
0.0851793
0.0844859
0.0838172
0.0831765
0.0825662
0.0819881
0.0814422
0.0809268
0.0804385
0.0799729
0.0795335
0.079097
0.0787706
0.0781573
0.0782365
0.0794377
0.0819356
0.0841127
0.0853776
0.0863986
0.0873157
0.0879755
0.0885676
0.0891646
0.0898335
0.090634
0.0914894
0.0923465
0.0932173
0.0942132
0.0953532
0.0965679
0.0978169
0.0990793
0.100359
0.101788
0.103423
0.10515
0.106774
0.108333
0.110028
0.111987
0.113921
0.11563
0.117366
0.119139
0.120729
0.122005
0.122976
0.12378
0.124488
0.125138
0.125757
0.126359
0.126929
0.127446
0.127918
0.128133
0.127946
0.127224
0.125497
0.110932
0.103423
0.102366
0.102569
0.102559
0.102385
0.102166
0.101935
0.101704
0.101464
0.100733
0.0911975
0.0857731
0.0848144
0.0848094
0.0846649
0.0844173
0.0841575
0.0840276
0.0824401
0.0766572
0.0735156
0.072976
0.072973
0.0728784
0.0727701
0.0724164
0.0681968
0.0655298
0.0650257
0.0650732
0.0650572
0.0652611
0.0628617
0.0604326
0.0596208
0.0596112
0.0596708
0.0599462
0.0578161
0.0560161
0.0555848
0.0556819
0.0557952
0.055991
0.0541741
0.0528232
0.052614
0.0527666
0.053115
0.0516803
0.050529
0.0503594
0.0505284
0.0508341
0.0499393
0.0489132
0.0485941
0.04868
0.0488965
0.0485353
0.0475533
0.0469889
0.0469421
0.0469884
0.0470502
0.0459067
0.0452227
0.283911
0.280648
0.277404
0.274181
0.270984
0.267816
0.26468
0.261581
0.258519
0.255509
0.252555
0.249705
0.247117
0.244959
0.243292
0.242054
0.241087
0.240195
0.2392
0.237981
0.236471
0.234655
0.232549
0.230189
0.22762
0.22489
0.222045
0.219126
0.216169
0.213203
0.210255
0.207343
0.204484
0.201685
0.198921
0.196202
0.193546
0.190964
0.188467
0.186042
0.183668
0.181341
0.179061
0.176859
0.174766
0.172795
0.170934
0.169169
0.167459
0.165767
0.164082
0.16241
0.160765
0.159159
0.1576
0.156092
0.154639
0.153238
0.15188
0.150556
0.149257
0.147995
0.146725
0.145728
0.143581
0.146047
0.151245
0.158448
0.163115
0.165131
0.167042
0.168947
0.170168
0.171218
0.172138
0.17326
0.174792
0.176413
0.178005
0.179522
0.181286
0.183303
0.185338
0.187304
0.18923
0.191202
0.19353
0.196239
0.199093
0.201606
0.203929
0.206501
0.209548
0.212431
0.214823
0.217351
0.219743
0.221747
0.223305
0.224483
0.225433
0.226232
0.22693
0.22757
0.228166
0.228694
0.22912
0.229464
0.229083
0.227723
0.225069
0.219144
0.181432
0.167294
0.165958
0.165944
0.165411
0.164654
0.163842
0.163012
0.162185
0.16131
0.158894
0.137325
0.12759
0.126121
0.12577
0.125097
0.124285
0.123467
0.122849
0.119114
0.107552
0.102154
0.101171
0.100825
0.100296
0.0997647
0.0986712
0.0907017
0.0862573
0.0853373
0.0851094
0.0847536
0.0847308
0.080301
0.0762576
0.0748791
0.0746232
0.0744252
0.0745296
0.0708526
0.068006
0.0672263
0.0671362
0.0670466
0.0670567
0.0641041
0.0620481
0.0616075
0.0616153
0.0618679
0.0596125
0.0579124
0.0575533
0.0576091
0.0578319
0.0564249
0.0549455
0.0544268
0.0544122
0.0545532
0.0539396
0.0525684
0.0517796
0.0516374
0.051611
0.0515789
0.0500884
0.0491152
0.48848
0.484185
0.479913
0.475675
0.47148
0.467334
0.46325
0.45922
0.455286
0.451424
0.447825
0.445202
0.444222
0.444833
0.446437
0.448351
0.449886
0.450592
0.450284
0.448956
0.4467
0.443654
0.439961
0.435762
0.43118
0.426323
0.421285
0.416143
0.41096
0.405788
0.400666
0.395626
0.390695
0.385874
0.381148
0.376533
0.372045
0.367694
0.363499
0.359342
0.355179
0.351055
0.347
0.343186
0.339668
0.336403
0.333314
0.330341
0.327305
0.324157
0.320937
0.317702
0.314488
0.311323
0.308215
0.305174
0.302205
0.299289
0.296403
0.293537
0.290684
0.28787
0.285032
0.282831
0.277052
0.295913
0.315095
0.334429
0.344248
0.348294
0.353839
0.35947
0.363002
0.366025
0.368216
0.370902
0.374826
0.378728
0.382436
0.385494
0.388994
0.392707
0.395942
0.398642
0.401107
0.403695
0.40707
0.410991
0.415077
0.418022
0.420445
0.4232
0.426593
0.42983
0.432231
0.434832
0.436884
0.438393
0.439491
0.440327
0.440961
0.441408
0.441721
0.441948
0.4421
0.442143
0.442036
0.441819
0.439508
0.434767
0.426634
0.407879
0.30746
0.283352
0.282188
0.281552
0.280027
0.278263
0.27645
0.274624
0.272818
0.270826
0.264241
0.214431
0.197887
0.195974
0.194989
0.193425
0.191708
0.190006
0.188593
0.180263
0.156871
0.147975
0.146443
0.145532
0.144307
0.143119
0.14063
0.125417
0.11822
0.11677
0.116111
0.115225
0.114853
0.106686
0.100009
0.0978311
0.0972173
0.0966244
0.0964668
0.0900939
0.0856369
0.0843786
0.0840121
0.0836146
0.0833328
0.0784894
0.0753876
0.0746319
0.0744255
0.07453
0.0709475
0.0684416
0.0678231
0.0677127
0.0678087
0.065595
0.0634465
0.0626491
0.0624903
0.0625181
0.0615164
0.0595642
0.058458
0.0581829
0.0580496
0.0578776
0.0558666
0.0544961
0.723295
0.721028
0.718842
0.716749
0.714757
0.712869
0.711108
0.709413
0.708105
0.705862
0.706839
0.714508
0.726469
0.738958
0.749804
0.758264
0.763447
0.76573
0.765679
0.763799
0.76049
0.756074
0.750807
0.744893
0.738502
0.731774
0.724823
0.717744
0.710615
0.703497
0.69644
0.689485
0.682668
0.675922
0.669325
0.662916
0.656712
0.650714
0.644921
0.639302
0.633834
0.628502
0.62336
0.619086
0.615415
0.612086
0.608897
0.60568
0.601845
0.597632
0.593264
0.588853
0.584443
0.580066
0.575724
0.571438
0.567213
0.562987
0.558741
0.554502
0.55026
0.546039
0.541799
0.53849
0.527972
0.622475
0.673136
0.718678
0.740733
0.753895
0.774684
0.794267
0.807951
0.820321
0.829062
0.839029
0.85266
0.865196
0.876698
0.884885
0.893625
0.901431
0.906881
0.910517
0.913372
0.916332
0.920553
0.924917
0.92903
0.929521
0.929034
0.928526
0.928098
0.927717
0.927046
0.926321
0.925502
0.92467
0.92379
0.922821
0.921771
0.92067
0.919526
0.918343
0.91713
0.915889
0.9146
0.91327
0.905569
0.891516
0.867619
0.808488
0.531952
0.499688
0.499142
0.49719
0.494272
0.491192
0.488096
0.485018
0.482
0.478305
0.46112
0.34319
0.317631
0.31552
0.31342
0.310508
0.307481
0.304515
0.301893
0.283459
0.235411
0.221536
0.219383
0.217565
0.215288
0.213136
0.207964
0.178529
0.167275
0.165202
0.163882
0.162203
0.161318
0.146187
0.135263
0.132009
0.130889
0.129713
0.129174
0.118066
0.111184
0.1093
0.108538
0.107693
0.106967
0.0989683
0.094357
0.0931947
0.0926841
0.0925729
0.0868474
0.083188
0.0822313
0.0818863
0.0817991
0.0783229
0.0752047
0.0740322
0.073675
0.0735415
0.0719501
0.0691412
0.0675981
0.0671445
0.0668609
0.0664849
0.0637034
0.0617975
0.857485
0.857657
0.857978
0.858454
0.859092
0.859894
0.860886
0.861961
0.863833
0.86199
0.88618
0.927633
0.956747
0.971612
0.978737
0.982179
0.984174
0.98555
0.98656
0.987311
0.987863
0.988267
0.988562
0.988772
0.988917
0.989013
0.989071
0.989099
0.989103
0.989086
0.989052
0.989004
0.988913
0.988401
0.98781
0.987198
0.986564
0.985905
0.985225
0.984549
0.983864
0.983154
0.982415
0.98168
0.980942
0.980196
0.979193
0.977417
0.975608
0.973774
0.971899
0.969996
0.96808
0.966169
0.964274
0.962418
0.960615
0.958822
0.957077
0.955555
0.954119
0.952706
0.951303
0.950024
0.948196
0.952809
0.956007
0.958348
0.959008
0.959153
0.959843
0.96041
0.960671
0.960911
0.960931
0.961081
0.961637
0.962236
0.962794
0.963181
0.963881
0.964593
0.965019
0.965147
0.965144
0.965333
0.965967
0.966703
0.967704
0.968045
0.968037
0.968244
0.968666
0.969507
0.969466
0.969355
0.968905
0.968335
0.967695
0.96696
0.966121
0.965188
0.96417
0.963072
0.961889
0.960601
0.959185
0.95763
0.955343
0.952255
0.948216
0.941054
0.914185
0.908621
0.90652
0.904277
0.901968
0.899672
0.897405
0.895178
0.89303
0.888421
0.843836
0.557037
0.525753
0.523687
0.520079
0.515718
0.511347
0.507104
0.502994
0.461625
0.361035
0.341294
0.338497
0.335335
0.331633
0.32821
0.31774
0.259826
0.243081
0.24034
0.238028
0.235227
0.233624
0.205284
0.187581
0.182955
0.181128
0.179118
0.178039
0.158498
0.148036
0.14537
0.144053
0.142575
0.141179
0.127863
0.121126
0.119462
0.118528
0.118114
0.108905
0.103628
0.102248
0.101581
0.101239
0.0957813
0.0912755
0.0896141
0.0889924
0.088637
0.0861533
0.0820875
0.0799566
0.0792716
0.0787835
0.0781142
0.0741983
0.0715839
0.992838
0.992715
0.992621
0.992535
0.992451
0.992372
0.992297
0.992225
0.992169
0.992052
0.992327
0.992965
0.993477
0.993746
0.993867
0.993921
0.99395
0.993975
0.994002
0.994034
0.99407
0.994111
0.994161
0.994219
0.994288
0.994366
0.994456
0.994557
0.994669
0.994793
0.994929
0.995076
0.995233
0.995388
0.995548
0.995715
0.995886
0.996059
0.99633
0.996689
0.99705
0.997401
0.997744
0.998078
0.998404
0.998725
0.998878
0.998772
0.998637
0.998495
0.998343
0.998181
0.998007
0.997823
0.99763
0.997427
0.997219
0.997019
0.996816
0.996623
0.996432
0.996201
0.995653
0.995077
0.994438
0.994304
0.994151
0.993932
0.993515
0.993081
0.992709
0.992377
0.992084
0.991854
0.991523
0.991179
0.991065
0.991073
0.991046
0.990999
0.991087
0.991285
0.991339
0.991246
0.99108
0.991094
0.991381
0.991676
0.992266
0.992446
0.992369
0.992486
0.992611
0.993133
0.993106
0.992964
0.992719
0.992425
0.992098
0.991729
0.991301
0.99081
0.990256
0.98963
0.988917
0.988091
0.987131
0.986017
0.984629
0.98287
0.980793
0.978093
0.972581
0.969668
0.967119
0.964344
0.961366
0.958218
0.954942
0.951579
0.948172
0.944463
0.935961
0.897276
0.889919
0.88721
0.884298
0.881316
0.878393
0.875595
0.871587
0.776863
0.562277
0.539667
0.536287
0.531672
0.526643
0.522072
0.500891
0.384693
0.361861
0.358475
0.354797
0.350583
0.348061
0.29415
0.265772
0.259534
0.256743
0.253599
0.251793
0.216981
0.201373
0.197781
0.195692
0.193348
0.190939
0.168538
0.158896
0.15664
0.155122
0.154294
0.139356
0.13186
0.129972
0.128867
0.12818
0.119583
0.113107
0.110826
0.109858
0.109205
0.105365
0.0994532
0.0965469
0.0955703
0.0948111
0.0937224
0.0881363
0.084598
0.995647
0.995591
0.995555
0.995525
0.995499
0.995477
0.99546
0.995449