/*--------------------------------*- C++ -*----------------------------------*\
| =========                 |                                                 |
| \\      /  F ield         | OpenFOAM: The Open Source CFD Toolbox           |
|  \\    /   O peration     | Version:  2312                                  |
|   \\  /    A nd           | Website:  www.openfoam.com                      |
|    \\/     M anipulation  |                                                 |
\*---------------------------------------------------------------------------*/
FoamFile
{
    version     2.0;
    format      ascii;
    arch        "LSB;label=32;scalar=64";
    class       volScalarField;
    location    "20000";
    object      k;
}
// * * * * * * * * * * * * * * * * * * * * * * * * * * * * * * * * * * * * * //

dimensions      [0 2 -2 0 0 0 0];

internalField   nonuniform List<scalar> 
29400
(
0.00288409
0.00508989
0.00595811
0.00636445
0.00671926
0.00701962
0.00724931
0.00740729
0.0075158
0.00759239
0.00764741
0.00768736
0.00771652
0.00773791
0.00775366
0.00776534
0.00777403
0.00778064
0.00778566
0.00778916
0.00779123
0.00779204
0.00779191
0.00779107
0.00778973
0.00778807
0.00778622
0.00778435
0.00778216
0.00778009
0.0146193
0.018584
0.0215363
0.0226399
0.0234926
0.0242698
0.0248676
0.0252749
0.0255701
0.0258069
0.0260107
0.0261936
0.0263611
0.0265162
0.0266604
0.0267948
0.0269201
0.0270371
0.0271459
0.0272451
0.0273342
0.0274136
0.0274843
0.0275472
0.0276035
0.0276538
0.0276991
0.0277399
0.0277764
0.0278098
0.0390956
0.0429266
0.0460538
0.048037
0.0497605
0.0513693
0.0526075
0.0534825
0.0541792
0.0547868
0.0553423
0.0558606
0.0563476
0.0568055
0.0572355
0.0576382
0.0580142
0.0583661
0.0586905
0.0589836
0.0592455
0.0594796
0.0596891
0.0598772
0.0600463
0.0601989
0.0603369
0.0604621
0.0605756
0.060679
0.0746355
0.0752706
0.0758726
0.0767613
0.0782481
0.0799085
0.0814752
0.0828771
0.0841735
0.0854112
0.0866065
0.0877593
0.0888643
0.0899161
0.0909108
0.0918464
0.0927218
0.0935423
0.0942861
0.0949468
0.0955376
0.0960708
0.0965528
0.096989
0.097385
0.0977451
0.0980733
0.0983729
0.0986465
0.098897
0.11282
0.108655
0.104838
0.103338
0.103822
0.10492
0.106216
0.107641
0.109185
0.110817
0.112495
0.114178
0.115835
0.117441
0.118982
0.120447
0.121831
0.123132
0.124347
0.125477
0.126522
0.127488
0.128376
0.12919
0.129937
0.130624
0.131255
0.131835
0.132368
0.132856
0.143933
0.136285
0.128452
0.124774
0.124472
0.12484
0.125686
0.127024
0.128748
0.130726
0.132843
0.135018
0.13719
0.139318
0.141374
0.14334
0.145206
0.146967
0.148621
0.15017
0.151614
0.152958
0.154206
0.155364
0.156437
0.157428
0.158344
0.159188
0.159967
0.160684
0.165414
0.157962
0.147967
0.143022
0.142026
0.142131
0.14278
0.144331
0.146517
0.149084
0.151852
0.154698
0.157537
0.160313
0.162987
0.165537
0.167949
0.170218
0.172343
0.174328
0.176176
0.177895
0.17949
0.180968
0.182336
0.183601
0.184768
0.185845
0.186836
0.187748
0.180866
0.175195
0.166346
0.160888
0.159495
0.159778
0.161239
0.163852
0.167227
0.171038
0.175054
0.179113
0.183103
0.186951
0.190612
0.194059
0.197283
0.200281
0.203061
0.205631
0.208003
0.210191
0.212206
0.21406
0.215764
0.217326
0.218757
0.220068
0.221269
0.222368
0.192701
0.188286
0.181429
0.176752
0.175754
0.177146
0.180438
0.185084
0.190598
0.196594
0.202786
0.208966
0.21499
0.220761
0.22622
0.231333
0.236091
0.240495
0.244558
0.248297
0.251732
0.254884
0.257777
0.260421
0.26283
0.265026
0.267027
0.268853
0.270519
0.272041
0.201464
0.198716
0.192873
0.189488
0.189777
0.193148
0.198849
0.206137
0.214419
0.223236
0.23224
0.241176
0.249859
0.258163
0.266011
0.273361
0.280201
0.286534
0.292379
0.29776
0.302705
0.307243
0.311405
0.315219
0.318711
0.321908
0.324833
0.327508
0.329955
0.332194
0.207864
0.206421
0.201724
0.200076
0.202527
0.208526
0.217166
0.22762
0.23921
0.251401
0.263776
0.276021
0.287903
0.29926
0.309996
0.320058
0.329429
0.338116
0.34614
0.353532
0.360329
0.366569
0.372292
0.377536
0.382337
0.386733
0.390755
0.394435
0.397802
0.400881
0.212713
0.21229
0.209141
0.209636
0.214728
0.223762
0.23577
0.249843
0.265218
0.281273
0.297512
0.313547
0.329087
0.343933
0.357968
0.371127
0.38339
0.394762
0.405268
0.414947
0.423844
0.432008
0.439488
0.446337
0.452603
0.458333
0.463573
0.468362
0.47274
0.476743
0.216629
0.217139
0.21582
0.218771
0.226822
0.239248
0.255035
0.273185
0.292837
0.313266
0.333878
0.354195
0.37386
0.392639
0.410391
0.427039
0.442553
0.456934
0.470214
0.482438
0.493658
0.503938
0.513344
0.521942
0.529799
0.536975
0.543527
0.54951
0.554971
0.559958
0.220016
0.22142
0.222132
0.227766
0.239037
0.255205
0.275199
0.297906
0.322355
0.347696
0.373217
0.398324
0.4226
0.445779
0.467693
0.488238
0.507368
0.525084
0.541421
0.556426
0.57017
0.582736
0.594215
0.604693
0.614251
0.622966
0.63091
0.638151
0.644748
0.650763
0.223057
0.225389
0.228232
0.236724
0.251481
0.271758
0.296406
0.324173
0.353968
0.38478
0.415754
0.446165
0.475554
0.503622
0.53015
0.554991
0.578087
0.599439
0.619081
0.637057
0.653483
0.668481
0.682161
0.694625
0.70597
0.716289
0.725674
0.734208
0.741968
0.749028
0.225856
0.229133
0.234196
0.245707
0.264226
0.288995
0.318761
0.352108
0.387813
0.424657
0.461624
0.497841
0.532852
0.566287
0.597837
0.627313
0.65467
0.679892
0.702993
0.724034
0.743242
0.760764
0.776707
0.791189
0.804332
0.816257
0.827076
0.836891
0.845803
0.853876
0.228465
0.2327
0.240058
0.254755
0.277323
0.30698
0.34234
0.381796
0.423968
0.467368
0.510824
0.553301
0.59433
0.633403
0.670138
0.704353
0.736051
0.765114
0.791566
0.815563
0.837312
0.857023
0.874887
0.891082
0.905766
0.91908
0.931157
0.942113
0.952062
0.961071
0.230916
0.236123
0.245846
0.263901
0.290812
0.325751
0.367167
0.413237
0.462304
0.512591
0.562802
0.611707
0.658277
0.702062
0.742876
0.780652
0.815477
0.847064
0.875633
0.901494
0.924921
0.946151
0.965394
0.982842
0.998669
1.01303
1.02607
1.03791
1.04867
1.05845
0.233228
0.239425
0.251584
0.273164
0.304694
0.345233
0.393047
0.446042
0.501727
0.558258
0.614231
0.66815
0.718881
0.76615
0.809856
0.850014
0.886745
0.920203
0.95059
0.978144
1.00311
1.02572
1.0462
1.06475
1.08157
1.09681
1.11064
1.1232
1.13459
1.14495
0.235418
0.242626
0.257284
0.282501
0.318795
0.36483
0.41874
0.477985
0.53963
0.601655
0.662377
0.720528
0.775258
0.826115
0.87294
0.915777
0.954796
0.990235
1.02236
1.05144
1.07776
1.10156
1.12308
1.14256
1.16018
1.17614
1.1906
1.20371
1.2156
1.2264
0.237498
0.245742
0.262925
0.291611
0.332352
0.383733
0.443464
0.508585
0.576229
0.643916
0.709719
0.772315
0.830896
0.885062
0.93472
0.979987
1.0211
1.05834
1.09203
1.12246
1.14995
1.17476
1.19717
1.2174
1.23568
1.25221
1.26716
1.28069
1.29295
1.30407
0.239477
0.248782
0.268332
0.300218
0.345329
0.402359
0.46832
0.539709
0.613342
0.686486
0.7571
0.823846
0.885951
0.943092
0.995272
1.04269
1.08565
1.12449
1.15954
1.19115
1.21962
1.24527
1.26839
1.28922
1.308
1.32495
1.34026
1.3541
1.36662
1.37795
0.241365
0.25175
0.273337
0.308512
0.358564
0.421491
0.493754
0.571374
0.650853
0.729191
0.804284
0.874815
0.940073
0.999843
1.05425
1.10357
1.14816
1.18838
1.22459
1.25716
1.28643
1.31274
1.33638
1.35765
1.37678
1.39402
1.40956
1.42358
1.43624
1.44769
0.243168
0.25464
0.277989
0.316907
0.372104
0.441058
0.51966
0.603421
0.688539
0.771731
0.850923
0.924838
0.992859
1.05493
1.1113
1.1623
1.20829
1.24967
1.28682
1.32014
1.35
1.37676
1.40076
1.42229
1.44162
1.459
1.47463
1.48871
1.5014
1.51286
0.244893
0.257419
0.282609
0.32543
0.385925
0.46101
0.545936
0.635682
0.726159
0.813792
0.896682
0.973554
1.04396
1.10806
1.16615
1.2186
1.26576
1.30805
1.3459
1.37973
1.40996
1.43698
1.46114
1.48277
1.50214
1.51951
1.5351
1.54912
1.56173
1.57309
0.246544
0.259973
0.287196
0.334087
0.400012
0.481294
0.57247
0.66798
0.763471
0.855078
0.941278
1.02068
1.09317
1.15907
1.21869
1.27233
1.32038
1.36331
1.40158
1.43568
1.46607
1.49314
1.51728
1.53883
1.55807
1.57529
1.5907
1.60452
1.61692
1.62806
0.248123
0.262323
0.291778
0.342879
0.414343
0.501849
0.599141
0.700136
0.800248
0.895368
0.984575
1.06619
1.14065
1.20826
1.26918
1.32374
1.3724
1.41568
1.45413
1.48827
1.51858
1.5455
1.56943
1.59071
1.60966
1.62655
1.64162
1.6551
1.66715
1.67796
0.249625
0.264496
0.296377
0.351804
0.428892
0.522606
0.625826
0.731998
0.836361
0.934758
1.02696
1.11121
1.18819
1.25776
1.32002
1.3754
1.42451
1.46798
1.50642
1.54039
1.57042
1.59697
1.62047
1.64128
1.65974
1.67614
1.69072
1.7037
1.71529
1.72561
0.251024
0.266571
0.301004
0.360856
0.443629
0.543493
0.652425
0.763552
0.872083
0.974696
1.07104
1.1621
1.24502
1.31901
1.3844
1.44192
1.49237
1.53656
1.57526
1.60916
1.63889
1.66501
1.68798
1.70823
1.72613
1.74197
1.75602
1.76852
1.77965
1.7896
0.252322
0.268602
0.305664
0.370026
0.458522
0.564449
0.678954
0.795374
0.909415
1.02259
1.12869
1.22516
1.31154
1.38816
1.45569
1.51495
1.56681
1.61213
1.65174
1.68636
1.71666
1.74322
1.76654
1.78706
1.80517
1.82117
1.83535
1.84794
1.85914
1.86914
0.253539
0.270587
0.310359
0.379303
0.473538
0.585467
0.705933
0.830571
0.956901
1.07713
1.18792
1.28811
1.37755
1.45667
1.52622
1.58712
1.64031
1.68673
1.72724
1.76261
1.79354
1.82063
1.8444
1.86531
1.88375
1.90004
1.91447
1.92728
1.93867
1.94884
0.254692
0.272526
0.315089
0.388675
0.488666
0.606778
0.735955
0.87239
1.00593
1.1315
1.24665
1.35038
1.44267
1.52406
1.59543
1.65779
1.71218
1.75958
1.8009
1.83696
1.86847
1.89605
1.92026
1.94154
1.96031
1.97689
1.99157
2.00461
2.01621
2.02656
0.255801
0.27442
0.319851
0.398131
0.503981
0.629568
0.77087
0.915156
1.05486
1.18553
1.30479
1.41179
1.50665
1.59007
1.66305
1.72671
1.78215
1.83042
1.87247
1.90914
1.94117
1.96921
1.99381
2.01545
2.03452
2.05138
2.06632
2.07958
2.09139
2.10192
0.256885
0.276268
0.324645
0.407677
0.519918
0.656906
0.806589
0.957948
1.10361
1.2391
1.36216
1.47212
1.56927
1.65448
1.72889
1.79368
1.85005
1.89908
1.94176
1.97898
2.01148
2.03994
2.06491
2.08687
2.10624
2.12336
2.13854
2.15202
2.16402
2.17474
0.257958
0.278084
0.329469
0.417389
0.53832
0.684722
0.842468
1.00074
1.15207
1.29203
1.41855
1.53115
1.63033
1.71712
1.79275
1.85853
1.91569
1.96539
2.00864
2.04634
2.07927
2.1081
2.1334
2.15567
2.17531
2.19269
2.20809
2.22179
2.23398
2.24487
0.259024
0.279933
0.334337
0.427595
0.558083
0.712985
0.878493
1.04339
1.20004
1.34412
1.47376
1.58871
1.68966
1.7778
1.85449
1.92111
1.97896
2.02922
2.07296
2.11109
2.14439
2.17357
2.19918
2.22173
2.24163
2.25924
2.27487
2.28876
2.30114
2.3122
0.260055
0.281957
0.339327
0.439553
0.578222
0.741451
0.914546
1.08576
1.24738
1.39521
1.52763
1.64463
1.74711
1.8364
1.91398
1.9813
2.03972
2.09047
2.13463
2.17313
2.20677
2.23624
2.26213
2.28494
2.30508
2.32292
2.33874
2.35283
2.36538
2.37661
0.261043
0.284138
0.344788
0.451881
0.598622
0.770082
0.950517
1.12771
1.29391
1.44514
1.58002
1.69879
1.80256
1.8928
1.9711
2.039
2.09789
2.14905
2.19355
2.23237
2.2663
2.29604
2.32218
2.34521
2.36557
2.3836
2.39962
2.41387
2.42659
2.43796
0.261992
0.286399
0.350868
0.46441
0.619227
0.798786
0.986284
1.1691
1.33952
1.49378
1.63079
1.75106
1.85589
1.9469
2.02578
2.09413
2.1534
2.20488
2.24967
2.28874
2.32292
2.35288
2.37923
2.40246
2.423
2.44121
2.45738
2.47179
2.48464
2.49614
0.262902
0.288634
0.35695
0.477088
0.639985
0.827474
1.02173
1.20981
1.38406
1.54101
1.67986
1.80137
1.90704
1.99864
2.07796
2.14664
2.20619
2.2579
2.30292
2.34219
2.37655
2.40669
2.43321
2.4566
2.47729
2.49564
2.51194
2.52647
2.53943
2.55103
0.263775
0.290856
0.363084
0.489893
0.660835
0.856052
1.05676
1.24972
1.42745
1.58674
1.72712
1.84962
1.95593
2.04796
2.12757
2.19648
2.25621
2.30809
2.35325
2.39266
2.42715
2.45742
2.48406
2.50756
2.52836
2.5468
2.5632
2.5778
2.59085
2.60252
0.26461
0.293059
0.369246
0.502788
0.68171
0.88443
1.09125
1.28874
1.46958
1.63089
1.77253
1.89578
2.00253
2.09483
2.1746
2.24363
2.30344
2.3554
2.40063
2.44011
2.47467
2.505
2.5317
2.55526
2.57611
2.59461
2.61105
2.6257
2.63878
2.65049
0.265408
0.295239
0.375425
0.515736
0.702543
0.912517
1.12512
1.32677
1.51037
1.67339
1.81601
1.9398
2.04682
2.13922
2.21903
2.28806
2.34787
2.39981
2.44503
2.4845
2.51906
2.54939
2.57608
2.59964
2.62049
2.63898
2.65541
2.67005
2.68312
2.69482
0.266168
0.297391
0.381608
0.528694
0.723262
0.940222
1.15826
1.36373
1.54976
1.71419
1.85755
1.98166
2.08876
2.18113
2.26085
2.32977
2.38947
2.44131
2.48643
2.52581
2.56029
2.59054
2.61716
2.64064
2.66142
2.67984
2.6962
2.71077
2.72378
2.73543
0.266889
0.29951
0.387774
0.541617
0.743792
0.967453
1.1906
1.39953
1.58768
1.75325
1.89712
2.02135
2.12837
2.22056
2.30008
2.36877
2.42826
2.47989
2.52482
2.56403
2.59833
2.62841
2.65488
2.67821
2.69884
2.71712
2.73335
2.74779
2.76068
2.77222
0.26757
0.301587
0.393898
0.554455
0.764057
0.994117
1.22204
1.43411
1.62408
1.79053
1.93468
2.05886
2.16565
2.25753
2.33671
2.40507
2.46424
2.51556
2.5602
2.59913
2.63316
2.66299
2.68921
2.71231
2.73271
2.75077
2.7668
2.78104
2.79375
2.80512
0.268211
0.303614
0.399949
0.567151
0.783977
1.02012
1.25249
1.46741
1.65891
1.82601
1.97025
2.0942
2.20061
2.29205
2.37078
2.43869
2.49742
2.54833
2.59257
2.63111
2.66478
2.69426
2.72014
2.74291
2.763
2.78076
2.7965
2.81048
2.82294
2.83408
0.268808
0.305576
0.405878
0.579643
0.803477
1.04537
1.28188
1.49934
1.69214
1.85966
2.00381
2.12738
2.23328
2.32415
2.4023
2.46965
2.52783
2.57821
2.62194
2.66
2.69319
2.72221
2.74765
2.77
2.78969
2.80707
2.82245
2.83609
2.84824
2.85907
0.269361
0.307455
0.411608
0.591853
0.822494
1.06978
1.31013
1.52986
1.72372
1.89148
2.03537
2.15841
2.26367
2.35386
2.43132
2.49799
2.5555
2.60524
2.64834
2.68579
2.7184
2.74686
2.77176
2.7936
2.8128
2.82971
2.84465
2.85787
2.86962
2.88009
0.269866
0.309241
0.417077
0.603675
0.840934
1.09325
1.33716
1.55892
1.75363
1.92146
2.06493
2.18733
2.29183
2.38122
2.45787
2.52373
2.58047
2.62944
2.67181
2.70854
2.74046
2.76825
2.79251
2.81374
2.83235
2.84871
2.86312
2.87585
2.88714
2.89717
0.270319
0.31092
0.422241
0.614978
0.858686
1.11574
1.36289
1.58645
1.78185
1.94959
2.09253
2.21416
2.31778
2.40626
2.48199
2.54694
2.60278
2.65087
2.69238
2.72829
2.7594
2.78642
2.80995
2.83046
2.8484
2.86412
2.87793
2.8901
2.90085
2.91037
0.27071
0.31247
0.427065
0.625636
0.875644
1.13719
1.38726
1.61244
1.80837
1.97588
2.11817
2.23893
2.34158
2.42905
2.50374
2.56767
2.62249
2.66959
2.71014
2.7451
2.77531
2.80146
2.82414
2.84386
2.86104
2.87605
2.88918
2.9007
2.91085
2.9198
0.271035
0.313862
0.431504
0.635545
0.891704
1.15754
1.4102
1.63684
1.83317
2.00036
2.1419
2.2617
2.36328
2.44963
2.52319
2.58598
2.63968
2.68568
2.72515
2.75907
2.78827
2.81345
2.83521
2.85405
2.87039
2.88459
2.89697
2.90779
2.91726
2.92558
0.271289
0.315075
0.435503
0.644611
0.906734
1.17667
1.43165
1.65965
1.85628
2.02303
2.16375
2.28251
2.38294
2.46808
2.5404
2.60195
2.65443
2.69922
2.73752
2.77029
2.7984
2.82252
2.84327
2.86115
2.87658
2.88992
2.90148
2.91153
2.92028
2.9279
0.271467
0.316086
0.439003
0.652738
0.920557
1.19452
1.45164
1.68086
1.87769
2.04395
2.18378
2.30143
2.40064
2.48448
2.55547
2.61569
2.66684
2.71034
2.74736
2.77891
2.80583
2.82882
2.84849
2.86533
2.87979
2.89221
2.9029
2.91212
2.92009
2.92698
0.27156
0.316873
0.441942
0.659826
0.933049
1.21098
1.47014
1.70047
1.89743
2.06316
2.20206
2.31855
2.41646
2.49892
2.56851
2.62731
2.67705
2.71916
2.75483
2.78508
2.81074
2.83253
2.85104
2.8668
2.88022
2.89167
2.90145
2.9098
2.91696
2.92309
0.271546
0.317415
0.444256
0.665782
0.94429
1.22554
1.48685
1.71849
1.91555
2.08072
2.21867
2.33397
2.43052
2.51154
2.57964
2.63695
2.6852
2.72585
2.7601
2.78897
2.81331
2.83384
2.85116
2.86578
2.87812
2.88856
2.89738
2.90485
2.91117
2.91651
0.271447
0.317686
0.445871
0.670552
0.95399
1.23855
1.5017
1.73489
1.93207
2.09671
2.23372
2.34779
2.44294
2.52247
2.58902
2.64476
2.69146
2.73058
2.76335
2.79079
2.81376
2.83298
2.84907
2.86252
2.87376
2.88316
2.89101
2.89756
2.90302
2.90757
0.271275
0.317663
0.446683
0.674348
0.961508
1.24977
1.51547
1.74959
1.94703
2.11122
2.24731
2.36015
2.45388
2.53186
2.59682
2.65094
2.69603
2.73358
2.76482
2.79079
2.81235
2.83024
2.84505
2.85731
2.86743
2.87578
2.88264
2.88827
2.89288
2.89662
0.270943
0.317386
0.446711
0.676495
0.96728
1.2594
1.52757
1.76277
1.96044
2.12431
2.25956
2.3712
2.4635
2.53992
2.60324
2.65571
2.69915
2.73509
2.76477
2.78923
2.80936
2.82589
2.83943
2.85048
2.85947
2.86676
2.87264
2.87735
2.8811
2.88405
0.270455
0.316704
0.44592
0.677226
0.971145
1.2671
1.53783
1.77423
1.97238
2.13605
2.27056
2.38107
2.47197
2.54683
2.6085
2.65929
2.70107
2.73537
2.76347
2.78642
2.80511
2.82027
2.83252
2.84237
2.85023
2.85647
2.86137
2.86517
2.86808
2.87025
0.2698
0.315558
0.444293
0.676598
0.972761
1.27261
1.54618
1.78392
1.98281
2.14648
2.2804
2.38988
2.47945
2.55278
2.61283
2.66195
2.70206
2.73473
2.76124
2.78267
2.79992
2.81373
2.8247
2.83335
2.8401
2.84531
2.84924
2.85216
2.85424
2.85565
0.268949
0.313957
0.441386
0.674167
0.972598
1.27614
1.55259
1.79181
1.99169
2.15559
2.28912
2.39771
2.48605
2.55794
2.61642
2.66391
2.70238
2.73343
2.75838
2.77832
2.79415
2.80662
2.81634
2.82382
2.82948
2.83367
2.83668
2.83873
2.84001
2.84069
0.267876
0.311848
0.437208
0.669601
0.970584
1.27763
1.55697
1.79796
1.99899
2.16335
2.2967
2.40461
2.49188
2.56244
2.61944
2.66537
2.70226
2.73175
2.75518
2.77367
2.78812
2.79929
2.8078
2.81415
2.81876
2.82198
2.82408
2.8253
2.82582
2.8258
0.266556
0.309186
0.431788
0.6631
0.966672
1.2765
1.55875
1.80223
2.0046
2.16969
2.30312
2.41057
2.49697
2.56637
2.62202
2.6665
2.70191
2.72992
2.75191
2.76901
2.78215
2.79208
2.79942
2.80469
2.8083
2.81059
2.81184
2.81228
2.81207
2.81139
0.264957
0.305932
0.42488
0.654327
0.96009
1.27351
1.55846
1.80419
2.00839
2.17452
2.30832
2.41556
2.50132
2.56976
2.62423
2.66741
2.70146
2.72811
2.74876
2.76457
2.77647
2.78524
2.7915
2.79576
2.79843
2.79986
2.80031
2.80001
2.79913
2.79783
0.263047
0.302091
0.416574
0.643175
0.950924
1.26775
1.55566
1.80393
2.01031
2.17775
2.31219
2.4195
2.50487
2.57258
2.62608
2.66815
2.701
2.72643
2.74587
2.7605
2.77128
2.77898
2.78425
2.78758
2.7894
2.79003
2.78975
2.78877
2.78728
2.78541
0.260873
0.297854
0.407564
0.629571
0.937982
1.25835
1.5503
1.8017
2.01027
2.17929
2.31464
2.4223
2.50755
2.57477
2.62752
2.66867
2.70052
2.72489
2.74327
2.75687
2.76665
2.77341
2.77779
2.78029
2.78134
2.78126
2.78033
2.77875
2.7767
2.77432
0.258682
0.293772
0.398559
0.614691
0.921788
1.24514
1.54154
1.79649
2.00761
2.1786
2.31522
2.42354
2.50901
2.57605
2.62833
2.66882
2.69988
2.7234
2.7409
2.75362
2.76255
2.7685
2.77211
2.77389
2.77427
2.77357
2.77207
2.76996
2.76743
2.76461
0.25659
0.289782
0.389562
0.599092
0.903988
1.22942
1.52902
1.78749
2.00196
2.17541
2.31365
2.42295
2.50899
2.57616
2.62824
2.66832
2.69883
2.72172
2.73853
2.75055
2.75879
2.76406
2.76703
2.76822
2.76803
2.76681
2.76482
2.76226
2.75932
2.75613
0.254586
0.285896
0.380508
0.582859
0.884651
1.21179
1.51454
1.77602
1.99315
2.16894
2.30926
2.42017
2.50713
2.57473
2.62687
2.66678
2.697
2.71948
2.73581
2.74731
2.75502
2.75977
2.76223
2.76292
2.76228
2.76062
2.75823
2.75531
2.75203
2.74853
0.252677
0.282126
0.371475
0.565938
0.863874
1.19209
1.4978
1.7626
1.98268
2.1609
2.30299
2.41513
2.50295
2.57119
2.62377
2.66386
2.69401
2.71629
2.73233
2.74348
2.75081
2.75516
2.75723
2.75755
2.75654
2.75454
2.75183
2.74862
2.74507
2.74132
0.250866
0.278488
0.362512
0.548484
0.84132
1.17023
1.47886
1.7471
1.97043
2.15141
2.29558
2.4092
2.49799
2.56681
2.61967
2.65984
2.68993
2.71206
2.72791
2.73883
2.74589
2.74998
2.75176
2.75179
2.7505
2.74824
2.74528
2.74184
2.73809
2.73416
0.249158
0.274993
0.353668
0.5306
0.817226
1.14607
1.4576
1.7294
1.95624
2.14026
2.28684
2.40227
2.49234
2.56201
2.6154
2.65584
2.68603
2.70813
2.72387
2.73463
2.7415
2.74537
2.74692
2.74673
2.74522
2.74274
2.73958
2.73595
2.73202
2.72792
0.247557
0.271656
0.345
0.512315
0.791643
1.11975
1.43391
1.70942
1.94001
2.12734
2.27663
2.39416
2.48579
2.55659
2.61075
2.65169
2.68219
2.70444
2.72023
2.73096
2.73776
2.74151
2.74293
2.74258
2.74091
2.73829
2.73497
2.73119
2.72712
2.72288
0.246064
0.268489
0.336569
0.493754
0.764397
1.09133
1.40779
1.68697
1.92159
2.11254
2.26485
2.38478
2.47826
2.55042
2.60557
2.64721
2.67818
2.70075
2.71672
2.72754
2.73436
2.73809
2.73946
2.73903
2.73727
2.73454
2.73112
2.72723
2.72305
2.7187
0.244683
0.265504
0.328439
0.475238
0.735846
1.0605
1.37902
1.66207
1.90094
2.09578
2.25142
2.37404
2.46962
2.54339
2.59974
2.64226
2.67387
2.69688
2.71315
2.72417
2.7311
2.73489
2.73626
2.73582
2.73401
2.73122
2.72772
2.72375
2.71948
2.71505
0.243417
0.262711
0.320656
0.456935
0.706181
1.02712
1.34776
1.6348
1.87802
2.077
2.23626
2.36185
2.45979
2.53539
2.59314
2.63672
2.66911
2.69269
2.70937
2.72067
2.72779
2.7317
2.73314
2.73272
2.73091
2.72809
2.72455
2.72053
2.7162
2.71171
0.242268
0.260118
0.313264
0.438937
0.675682
0.99167
1.31397
1.60485
1.85267
2.0561
2.21927
2.34811
2.44867
2.52633
2.58568
2.63048
2.66379
2.68806
2.70525
2.71692
2.72431
2.72839
2.72995
2.7296
2.72783
2.72501
2.72146
2.7174
2.71303
2.70849
0.241238
0.257736
0.306314
0.421437
0.644576
0.953984
1.2773
1.57211
1.82473
2.03294
2.20034
2.33272
2.43615
2.51611
2.57726
2.62346
2.65783
2.68291
2.70071
2.71283
2.72055
2.72487
2.72659
2.72635
2.72464
2.72185
2.71831
2.71424
2.70984
2.70526
0.240326
0.255568
0.299847
0.404622
0.613232
0.914275
1.23776
1.53652
1.79409
2.00737
2.17932
2.31555
2.42214
2.50464
2.56779
2.61555
2.65114
2.67715
2.69566
2.70831
2.71642
2.72103
2.72296
2.72286
2.72124
2.71851
2.71499
2.71093
2.70652
2.70191
0.239533
0.253619
0.293892
0.388658
0.581944
0.873048
1.19573
1.49798
1.76062
1.97926
2.15609
2.2965
2.40653
2.49181
2.55718
2.60668
2.64363
2.67069
2.69
2.70327
2.71184
2.71679
2.71897
2.71905
2.71755
2.7149
2.71142
2.70738
2.70296
2.69834
0.238856
0.251887
0.288467
0.373696
0.551126
0.830323
1.15101
1.4565
1.72433
1.94851
2.13052
2.27544
2.38923
2.47756
2.54536
2.5968
2.63525
2.66349
2.6837
2.69766
2.70676
2.71211
2.71458
2.71486
2.71352
2.71096
2.70755
2.70353
2.69913
2.6945
0.238292
0.250372
0.28358
0.359838
0.521114
0.786448
1.10381
1.41197
1.68497
1.91493
2.10247
2.25224
2.3701
2.46176
2.53225
2.58581
2.62594
2.65549
2.67672
2.69145
2.70115
2.70694
2.70974
2.71027
2.7091
2.70666
2.70332
2.69935
2.69496
2.69033
0.237838
0.249066
0.279229
0.347161
0.492319
0.741632
1.05392
1.36426
1.64217
1.87819
2.07164
2.22668
2.34898
2.44429
2.51772
2.57363
2.61562
2.64662
2.66898
2.68458
2.69494
2.70124
2.70442
2.70523
2.70425
2.70195
2.6987
2.69478
2.69042
2.68579
0.237489
0.247965
0.275405
0.335715
0.465175
0.696542
1.00104
1.31288
1.59568
1.83796
2.03776
2.19849
2.32565
2.42497
2.50164
2.56015
2.60419
2.6368
2.66042
2.67699
2.6881
2.69496
2.69857
2.69969
2.69894
2.6968
2.69365
2.6898
2.68547
2.68084
0.237237
0.247058
0.272094
0.325515
0.439919
0.651857
0.945799
1.25788
1.54518
1.79391
2.0005
2.16742
2.29989
2.4036
2.48386
2.54523
2.59155
2.62594
2.65096
2.66862
2.68055
2.68805
2.69213
2.6936
2.69311
2.69115
2.68812
2.68434
2.68005
2.67544
0.237077
0.246335
0.269272
0.316556
0.416827
0.608483
0.888791
1.19915
1.49079
1.74592
1.95964
2.13321
2.27144
2.37998
2.46418
2.52872
2.57756
2.61394
2.6405
2.65936
2.67222
2.68043
2.68504
2.6869
2.68669
2.68494
2.68205
2.67836
2.67411
2.66952
0.236999
0.245782
0.266911
0.308794
0.396026
0.566944
0.830789
1.13692
1.43217
1.69383
1.91494
2.09558
2.24006
2.35387
2.4424
2.51044
2.56207
2.60065
2.62893
2.64913
2.66302
2.67201
2.67721
2.67951
2.67962
2.67809
2.67536
2.67176
2.66757
2.663
0.236996
0.245385
0.26498
0.302173
0.377573
0.527739
0.772327
1.07148
1.36916
1.63741
1.86614
2.05427
2.20548
2.32502
2.41831
2.4902
2.54492
2.58594
2.61613
2.63782
2.65285
2.66271
2.66857
2.67136
2.67182
2.67054
2.66798
2.66449
2.66036
2.65581
0.237059
0.245128
0.263445
0.296626
0.3615
0.491447
0.714147
1.00341
1.30193
1.57608
1.81266
2.0088
2.1673
2.29313
2.39163
2.46779
2.52592
2.56965
2.60198
2.62532
2.64163
2.65246
2.65906
2.66239
2.66325
2.66225
2.65987
2.6565
2.65243
2.6479
0.237177
0.244994
0.262273
0.292084
0.347797
0.458637
0.657101
0.932503
1.23005
1.50917
1.75379
1.95854
2.12502
2.25775
2.36204
2.44292
2.50486
2.55162
2.58633
2.61153
2.62927
2.64119
2.64861
2.65255
2.65384
2.65315
2.65098
2.64773
2.64374
2.63923
0.23734
0.244966
0.261423
0.288462
0.336378
0.429753
0.602525
0.859062
1.15266
1.43615
1.68887
1.90281
2.07801
2.21839
2.32911
2.41527
2.48148
2.53164
2.56903
2.59632
2.61567
2.62882
2.63716
2.64178
2.64357
2.64322
2.64128
2.63818
2.63426
2.62978
0.237537
0.245025
0.260853
0.285669
0.327111
0.405097
0.552254
0.785256
1.07046
1.35705
1.61747
1.84097
2.02562
2.17446
2.29236
2.38446
2.45547
2.50947
2.5499
2.57955
2.60074
2.61529
2.62468
2.63008
2.63243
2.63248
2.6308
2.62786
2.62402
2.61958
0.237759
0.245152
0.260517
0.2836
0.319797
0.384657
0.507395
0.713132
0.984541
1.27175
1.53894
1.77214
1.96701
2.12522
2.25118
2.34996
2.42641
2.48478
2.52866
2.56103
2.58431
2.60046
2.61106
2.61735
2.62035
2.62085
2.61947
2.61672
2.61298
2.60857
0.237995
0.245329
0.260368
0.282151
0.314205
0.368221
0.468817
0.645236
0.896287
1.17957
1.45269
1.69536
1.9011
2.06964
2.20465
2.31104
2.39369
2.45705
2.50489
2.54037
2.56606
2.58407
2.59606
2.6034
2.60715
2.60818
2.60716
2.60462
2.601
2.59662
0.238235
0.245536
0.260362
0.281213
0.310092
0.355412
0.436758
0.583418
0.808342
1.08163
1.35779
1.60941
1.82654
2.00642
2.15162
2.26666
2.35644
2.42555
2.47797
2.51705
2.54554
2.5657
2.57934
2.5879
2.59254
2.5942
2.59361
2.59134
2.58787
2.58354
0.238471
0.24576
0.260461
0.280679
0.307223
0.345807
0.411178
0.529516
0.723272
0.979205
1.25415
1.51338
1.74185
1.93397
2.09057
2.21548
2.31348
2.38925
2.44698
2.49025
2.52201
2.54469
2.56024
2.57024
2.57594
2.57835
2.57826
2.57632
2.57303
2.56877
0.238703
0.245996
0.260633
0.28044
0.305305
0.338706
0.391012
0.483323
0.64198
0.871216
1.13812
1.4025
1.64187
1.84734
2.01697
2.15347
2.26126
2.34505
2.40922
2.45757
2.49329
2.51903
2.53691
2.54865
2.55563
2.55895
2.55949
2.55794
2.55486
2.55068
0.238913
0.246219
0.26084
0.280415
0.304213
0.33399
0.376603
0.447675
0.572245
0.767808
1.01768
1.28161
1.52979
1.74852
1.93209
2.08142
2.20025
2.29317
2.36471
2.41889
2.45916
2.4884
2.50894
2.52267
2.53111
2.53546
2.53668
2.53556
2.5327
2.52858
0.239077
0.246397
0.261027
0.280504
0.303719
0.331277
0.367536
0.423531
0.520039
0.680433
0.905478
1.16253
1.4159
1.64595
1.843
2.00543
2.13584
2.23846
2.31787
2.3783
2.42343
2.4564
2.47976
2.49557
2.50551
2.5109
2.51281
2.5121
2.50942
2.50532
0.239201
0.246532
0.261181
0.280629
0.303533
0.329765
0.361892
0.407464
0.482422
0.610126
0.804424
1.0471
1.30131
1.54007
1.74973
1.92534
2.06782
2.18076
2.2686
2.33572
2.38607
2.423
2.44933
2.46731
2.47878
2.48522
2.4878
2.48744
2.4849
2.48076
0.239292
0.246627
0.261289
0.280738
0.303499
0.328985
0.358491
0.397028
0.45624
0.556318
0.717716
0.938449
1.18752
1.43151
1.65232
1.84102
1.99607
2.11998
2.2169
2.29129
2.34731
2.38855
2.41808
2.43837
2.45145
2.45896
2.46219
2.46216
2.45971
2.45547
0.239355
0.246688
0.261355
0.280819
0.303527
0.328616
0.35651
0.390393
0.438501
0.516914
0.647272
0.83996
1.0764
1.32203
1.55159
1.75266
1.92051
2.05601
2.16272
2.24501
2.30721
2.35317
2.38618
2.40899
2.42381
2.43245
2.43635
2.43664
2.43424
2.42985
0.239397
0.246721
0.261382
0.280864
0.303575
0.328459
0.3554
0.38626
0.4267
0.488881
0.592443
0.75513
0.972206
1.21353
1.44848
1.6604
1.84089
1.98844
2.10558
2.19643
2.26538
2.3165
2.35336
2.37893
2.39567
2.40555
2.41016
2.41078
2.40841
2.40385
0.239421
0.246732
0.261377
0.280863
0.303596
0.328399
0.354807
0.383747
0.418988
0.469394
0.551174
0.684423
0.876502
1.10732
1.3443
1.56489
1.75737
1.91717
2.04532
2.14538
2.22169
2.27849
2.31957
2.34819
2.36703
2.37828
2.38369
2.38466
2.38233
2.37756
0.23943
0.24673
0.261357
0.280835
0.303582
0.328372
0.354499
0.382259
0.414045
0.456138
0.521151
0.628058
0.792085
1.00578
1.24013
1.46716
1.67039
1.84236
1.98194
2.09182
2.17609
2.23909
2.28484
2.31684
2.33804
2.35082
2.35713
2.35853
2.35626
2.35131
0.239427
0.246714
0.261322
0.280791
0.303544
0.328339
0.354331
0.381397
0.410936
0.447277
0.499875
0.584944
0.721017
0.912569
1.13862
1.36833
1.58036
1.76416
1.91556
2.03587
2.12876
2.19855
2.24946
2.28522
2.30906
2.32358
2.33094
2.33286
2.33072
2.32561
0.239412
0.246684
0.261267
0.280714
0.303463
0.328273
0.354219
0.3809
0.409018
0.441448
0.485075
0.552903
0.663324
0.829192
1.04082
1.26912
1.48777
1.68248
1.8458
1.9771
2.07926
2.15646
2.21304
2.253
2.27981
2.29633
2.30492
2.30747
2.30552
2.30028
0.239387
0.246644
0.261197
0.280612
0.303349
0.328168
0.35411
0.380599
0.407854
0.437684
0.474959
0.52965
0.618018
0.757153
0.948786
1.17064
1.39316
1.59706
1.77216
1.91494
2.02705
2.11231
2.17511
2.21968
2.24978
2.26852
2.27848
2.28176
2.28002
2.27462
0.239354
0.246594
0.261112
0.280491
0.303204
0.328026
0.35398
0.380387
0.407146
0.4353
0.468189
0.513205
0.583702
0.69738
0.864842
1.07448
1.29718
1.50841
1.69466
1.84914
1.97176
2.06569
2.13526
2.18486
2.21852
2.23965
2.25106
2.25507
2.25351
2.24786
0.239313
0.246535
0.261017
0.280353
0.303035
0.32785
0.353816
0.380201
0.406693
0.433805
0.463739
0.501827
0.558531
0.650061
0.791992
0.983505
1.20138
1.41761
1.61384
1.77999
1.91358
2.01677
2.09362
2.14865
2.18613
2.20977
2.22266
2.22735
2.22587
2.21985
0.239267
0.246471
0.260913
0.280203
0.302846
0.327644
0.353619
0.380006
0.406369
0.432858
0.460849
0.49408
0.540445
0.613597
0.730642
0.899933
1.10765
1.32552
1.53011
1.70777
1.85286
1.96598
2.05073
2.11164
2.15324
2.17953
2.19393
2.19924
2.19774
2.19121
0.239217
0.246401
0.260802
0.280042
0.302642
0.327416
0.353389
0.379787
0.406098
0.432233
0.458983
0.488883
0.527714
0.586342
0.680937
0.825718
1.01766
1.2327
1.44324
1.63183
1.78892
1.91283
2.00632
2.07381
2.12001
2.14928
2.16535
2.17135
2.16979
2.16268
0.239162
0.246327
0.260685
0.279873
0.302426
0.327169
0.353134
0.379541
0.405837
0.431784
0.457771
0.485446
0.518932
0.566545
0.642215
0.76243
0.933679
1.14039
1.35404
1.55193
1.72104
1.85652
1.9597
2.03461
2.0861
2.11882
2.13687
2.1437
2.14212
2.13438
0.239106
0.246251
0.260565
0.279698
0.302201
0.326908
0.352857
0.379267
0.405564
0.43142
0.456956
0.483186
0.512967
0.55247
0.613002
0.710675
0.858396
1.0508
1.26285
1.46777
1.6484
1.79596
1.9097
1.9929
2.05038
2.08706
2.10743
2.11528
2.11372
2.10529
0.239047
0.246173
0.260442
0.279519
0.301968
0.326635
0.352563
0.378969
0.405268
0.431082
0.456363
0.481683
0.508952