/*--------------------------------*- C++ -*----------------------------------*\
| =========                 |                                                 |
| \\      /  F ield         | OpenFOAM: The Open Source CFD Toolbox           |
|  \\    /   O peration     | Version:  2312                                  |
|   \\  /    A nd           | Website:  www.openfoam.com                      |
|    \\/     M anipulation  |                                                 |
\*---------------------------------------------------------------------------*/
FoamFile
{
    version     2.0;
    format      ascii;
    arch        "LSB;label=32;scalar=64";
    class       volScalarField;
    location    "20000";
    object      nut;
}
// * * * * * * * * * * * * * * * * * * * * * * * * * * * * * * * * * * * * * //

dimensions      [0 2 -1 0 0 0 0];

internalField   nonuniform List<scalar> 
29400
(
1.83492e-09
3.23826e-09
3.79062e-09
4.04913e-09
4.27485e-09
4.46594e-09
4.61206e-09
4.71257e-09
4.7816e-09
4.83032e-09
4.86533e-09
4.89074e-09
4.90929e-09
4.9229e-09
4.93292e-09
4.94035e-09
4.94588e-09
4.95009e-09
4.95328e-09
4.95551e-09
4.95682e-09
4.95734e-09
4.95725e-09
4.95672e-09
4.95587e-09
4.95481e-09
4.95364e-09
4.95245e-09
4.95106e-09
4.94973e-09
5.61118e-08
7.11792e-08
8.22461e-08
8.6207e-08
8.91385e-08
9.17337e-08
9.36226e-08
9.47868e-08
9.55417e-08
9.60986e-08
9.65587e-08
9.69684e-08
9.73483e-08
9.7708e-08
9.80514e-08
9.83803e-08
9.86944e-08
9.89955e-08
9.92812e-08
9.95452e-08
9.97836e-08
9.99966e-08
1.00187e-07
1.00357e-07
1.00509e-07
1.00645e-07
1.00769e-07
1.00881e-07
1.0098e-07
1.01072e-07
4.84127e-07
5.26034e-07
5.57203e-07
5.74375e-07
5.87125e-07
5.97435e-07
6.02762e-07
6.03711e-07
6.02792e-07
6.01254e-07
5.99639e-07
5.9818e-07
5.96957e-07
5.9599e-07
5.95262e-07
5.9475e-07
5.94419e-07
5.94257e-07
5.94191e-07
5.94144e-07
5.94088e-07
5.94025e-07
5.93961e-07
5.93903e-07
5.93852e-07
5.93811e-07
5.93783e-07
5.93767e-07
5.93757e-07
5.93734e-07
2.29809e-06
2.25136e-06
2.19795e-06
2.17153e-06
2.16191e-06
2.154e-06
2.14092e-06
2.1224e-06
2.10157e-06
2.08078e-06
2.06119e-06
2.04329e-06
2.0272e-06
2.0129e-06
2.00028e-06
1.98921e-06
1.97953e-06
1.97118e-06
1.96353e-06
1.95628e-06
1.94953e-06
1.94338e-06
1.93777e-06
1.93267e-06
1.92807e-06
1.92394e-06
1.92024e-06
1.91694e-06
1.91399e-06
1.9112e-06
7.62154e-06
6.90865e-06
6.22935e-06
5.90146e-06
5.74038e-06
5.62618e-06
5.52446e-06
5.43001e-06
5.34337e-06
5.26449e-06
5.19282e-06
5.1278e-06
5.06893e-06
5.01581e-06
4.9681e-06
4.92543e-06
4.88743e-06
4.85376e-06
4.82392e-06
4.79741e-06
4.77383e-06
4.7529e-06
4.71986e-06
4.68708e-06
4.65842e-06
4.63334e-06
4.61136e-06
4.59206e-06
4.57512e-06
4.56135e-06
1.8759e-05
1.60318e-05
1.27887e-05
1.14562e-05
1.09483e-05
1.06202e-05
1.03506e-05
1.01158e-05
9.90122e-06
9.69885e-06
9.50736e-06
9.32912e-06
9.16747e-06
9.02505e-06
8.90312e-06
8.80153e-06
8.71904e-06
8.65371e-06
8.60324e-06
8.56529e-06
8.53761e-06
8.5182e-06
8.50544e-06
8.49789e-06
8.49434e-06
8.4938e-06
8.49551e-06
8.49887e-06
8.50337e-06
8.51966e-06
3.53571e-05
2.2878e-05
1.47882e-05
1.32488e-05
1.27106e-05
1.24117e-05
1.21878e-05
1.20352e-05
1.19182e-05
1.18149e-05
1.17172e-05
1.16256e-05
1.15438e-05
1.1476e-05
1.14255e-05
1.13938e-05
1.13806e-05
1.13846e-05
1.14037e-05
1.14354e-05
1.1477e-05
1.15261e-05
1.15805e-05
1.16383e-05
1.1698e-05
1.17583e-05
1.18181e-05
1.18767e-05
1.19334e-05
1.20158e-05
4.18408e-05
2.55959e-05
1.67408e-05
1.49505e-05
1.42922e-05
1.39592e-05
1.37661e-05
1.36662e-05
1.36094e-05
1.35672e-05
1.35278e-05
1.34902e-05
1.34581e-05
1.34367e-05
1.34303e-05
1.34413e-05
1.34703e-05
1.35166e-05
1.35782e-05
1.36528e-05
1.37377e-05
1.38303e-05
1.39282e-05
1.40292e-05
1.41313e-05
1.4233e-05
1.43329e-05
1.44301e-05
1.4524e-05
1.46527e-05
4.46237e-05
2.79001e-05
1.84628e-05
1.65422e-05
1.5828e-05
1.55345e-05
1.54502e-05
1.54729e-05
1.55404e-05
1.56178e-05
1.56897e-05
1.57536e-05
1.58134e-05
1.58754e-05
1.59452e-05
1.60266e-05
1.61214e-05
1.62297e-05
1.63502e-05
1.64809e-05
1.66192e-05
1.67627e-05
1.69092e-05
1.70571e-05
1.72037e-05
1.73469e-05
1.74857e-05
1.76195e-05
1.77476e-05
1.79178e-05
4.73612e-05
2.99479e-05
1.99023e-05
1.79112e-05
1.72225e-05
1.70464e-05
1.71222e-05
1.73201e-05
1.75639e-05
1.78107e-05
1.8041e-05
1.82507e-05
1.84437e-05
1.86276e-05
1.88096e-05
1.89953e-05
1.91879e-05
1.93885e-05
1.95965e-05
1.98104e-05
2.0028e-05
2.02469e-05
2.04649e-05
2.06798e-05
2.08898e-05
2.10934e-05
2.12895e-05
2.14774e-05
2.16564e-05
2.18851e-05
4.94875e-05
3.16629e-05
2.11386e-05
1.91295e-05
1.85499e-05
1.85516e-05
1.88367e-05
1.92574e-05
1.97249e-05
2.01876e-05
2.06208e-05
2.10181e-05
2.13834e-05
2.17253e-05
2.20531e-05
2.23743e-05
2.2694e-05
2.30146e-05
2.33363e-05
2.36581e-05
2.39782e-05
2.42943e-05
2.46044e-05
2.49063e-05
2.51984e-05
2.54792e-05
2.57479e-05
2.60038e-05
2.62464e-05
2.6547e-05
5.11896e-05
3.31664e-05
2.22795e-05
2.02947e-05
1.98693e-05
2.00873e-05
2.06219e-05
2.13072e-05
2.20407e-05
2.2761e-05
2.34371e-05
2.40592e-05
2.46307e-05
2.51618e-05
2.5664e-05
2.61475e-05
2.66191e-05
2.70828e-05
2.75397e-05
2.79895e-05
2.84306e-05
2.88611e-05
2.92789e-05
2.96823e-05
3.00696e-05
3.04399e-05
3.07923e-05
3.11264e-05
3.1442e-05
3.18248e-05
5.27022e-05
3.45714e-05
2.33938e-05
2.14632e-05
2.12212e-05
2.16893e-05
2.25124e-05
2.35046e-05
2.45479e-05
2.5569e-05
2.65293e-05
2.74143e-05
2.82266e-05
2.89784e-05
2.96844e-05
3.03573e-05
3.10059e-05
3.16355e-05
3.22486e-05
3.28453e-05
3.34245e-05
3.39848e-05
3.45245e-05
3.50422e-05
3.55368e-05
3.60073e-05
3.64533e-05
3.68747e-05
3.72713e-05
3.77456e-05
5.40935e-05
3.59422e-05
2.45216e-05
2.2665e-05
2.26305e-05
2.33825e-05
2.45352e-05
2.58792e-05
2.72794e-05
2.8648e-05
2.99363e-05
3.1124e-05
3.22136e-05
3.32202e-05
3.41617e-05
3.50526e-05
3.59039e-05
3.67226e-05
3.75125e-05
3.82742e-05
3.90075e-05
3.97118e-05
4.03864e-05
4.10304e-05
4.1643e-05
4.22236e-05
4.27721e-05
4.32886e-05
4.37735e-05
4.43474e-05
5.54042e-05
3.73184e-05
2.56833e-05
2.39153e-05
2.41135e-05
2.51857e-05
2.67122e-05
2.84565e-05
3.02645e-05
3.20302e-05
3.36928e-05
3.52247e-05
3.66304e-05
3.79285e-05
3.91385e-05
4.02764e-05
4.13559e-05
4.23861e-05
4.33718e-05
4.43138e-05
4.52148e-05
4.60762e-05
4.68979e-05
4.76791e-05
4.84192e-05
4.91182e-05
4.97762e-05
5.0394e-05
5.09725e-05
5.16527e-05
5.66654e-05
3.87146e-05
2.68915e-05
2.5226e-05
2.5684e-05
2.7116e-05
2.90637e-05
3.12605e-05
3.35306e-05
3.57453e-05
3.783e-05
3.97483e-05
4.15111e-05
4.31379e-05
4.46475e-05
4.60583e-05
4.73887e-05
4.86488e-05
4.98436e-05
5.09753e-05
5.20543e-05
5.30828e-05
5.40597e-05
5.49844e-05
5.5857e-05
5.66783e-05
5.74495e-05
5.81717e-05
5.88468e-05
5.96365e-05
5.78946e-05
4.01395e-05
2.81549e-05
2.6608e-05
2.73558e-05
2.91901e-05
3.16099e-05
3.43145e-05
3.71031e-05
3.98178e-05
4.23708e-05
4.47162e-05
4.68703e-05
4.88492e-05
5.06732e-05
5.23672e-05
5.39572e-05
5.54487e-05
5.68487e-05
5.81664e-05
5.94105e-05
6.05871e-05
6.16998e-05
6.2751e-05
6.37423e-05
6.46752e-05
6.55511e-05
6.63717e-05
6.71388e-05
6.80371e-05
5.9103e-05
4.15997e-05
2.94824e-05
2.80726e-05
2.91426e-05
3.14239e-05
3.43681e-05
3.76365e-05
4.09916e-05
4.42441e-05
4.72959e-05
5.00889e-05
5.26026e-05
5.48681e-05
5.69298e-05
5.88272e-05
6.05963e-05
6.22321e-05
6.37568e-05
6.51906e-05
6.6546e-05
6.78297e-05
6.90457e-05
7.01961e-05
7.12827e-05
7.23068e-05
7.32699e-05
7.41735e-05
7.50191e-05
7.60152e-05
6.02997e-05
4.31002e-05
3.08826e-05
2.96303e-05
3.10557e-05
3.3824e-05
3.73373e-05
4.12117e-05
4.5122e-05
4.88703e-05
5.23511e-05
5.54903e-05
5.8268e-05
6.07393e-05
6.29624e-05
6.49885e-05
6.68595e-05
6.8604e-05
7.02426e-05
7.17896e-05
7.32542e-05
7.46424e-05
7.59574e-05
7.72017e-05
7.83767e-05
7.94841e-05
8.05254e-05
8.15024e-05
8.24167e-05
8.34976e-05
6.14925e-05
4.46455e-05
3.23635e-05
3.12862e-05
3.30896e-05
3.63472e-05
4.04169e-05
4.48537e-05
4.92798e-05
5.34779e-05
5.73208e-05
6.07603e-05
6.38072e-05
6.65085e-05
6.89245e-05
7.11135e-05
7.31245e-05
7.49943e-05
7.67483e-05
7.84033e-05
7.99697e-05
8.14538e-05
8.28593e-05
8.41886e-05
8.54435e-05
8.66257e-05
8.7737e-05
8.87792e-05
8.97542e-05
9.09122e-05
6.26888e-05
4.62396e-05
3.39289e-05
3.30165e-05
3.51769e-05
3.8926e-05
4.35459e-05
4.85317e-05
5.34992e-05
5.81823e-05
6.2433e-05
6.6205e-05
6.95208e-05
7.24403e-05
7.5036e-05
7.73773e-05
7.95211e-05
8.15099e-05
8.3373e-05
8.5129e-05
8.67898e-05
8.83621e-05
8.98502e-05
9.12568e-05
9.25839e-05
9.38335e-05
9.50076e-05
9.61083e-05
9.71376e-05
9.83667e-05
6.38956e-05
4.78858e-05
3.55625e-05
3.47981e-05
3.73234e-05
4.16152e-05
4.68473e-05
5.24406e-05
5.79681e-05
6.31352e-05
6.77852e-05
7.18773e-05
7.54459e-05
7.8566e-05
8.13254e-05
8.38051e-05
8.60705e-05
8.81688e-05
9.0132e-05
9.19804e-05
9.37269e-05
9.53789e-05
9.69413e-05
9.84171e-05
9.98087e-05
0.000101118
0.000102348
0.000103501
0.000104578
0.000105873
6.512e-05
4.95864e-05
3.72464e-05
3.66609e-05
3.96319e-05
4.45129e-05
5.03873e-05
5.66074e-05
6.27028e-05
6.83482e-05
7.33835e-05
7.77772e-05
8.15783e-05
8.48801e-05
8.77874e-05
9.03932e-05
9.27694e-05
9.4967e-05
9.70201e-05
9.89509e-05
0.000100773
0.000102495
0.000104122
0.000105658
0.000107106
0.000108467
0.000109745
0.000110943
0.000112062
0.000113416
6.63689e-05
5.13418e-05
3.89906e-05
3.86648e-05
4.21256e-05
4.76343e-05
5.41811e-05
6.10449e-05
6.77115e-05
7.38229e-05
7.92253e-05
8.38984e-05
8.79093e-05
9.13746e-05
9.44164e-05
9.71371e-05
9.96131e-05
0.000101898
0.000104029
0.00010603
0.000107916
0.000109696
0.000111377
0.000112963
0.000114457
0.000115862
0.00011718
0.000118415
0.000119568
0.000120975
6.76496e-05
5.31477e-05
4.08454e-05
4.08274e-05
4.4822e-05
5.0999e-05
5.82469e-05
6.5767e-05
7.30024e-05
7.95607e-05
8.53095e-05
9.02364e-05
9.44348e-05
9.80485e-05
0.000101214
0.000104037
0.0001066
0.000108958
0.000111151
0.000113207
0.000115143
0.000116969
0.000118692
0.000120317
0.000121847
0.000123285
0.000124635
0.000125897
0.000127076
0.000128529
6.89696e-05
5.49819e-05
4.28178e-05
4.31657e-05
4.77419e-05
5.46291e-05
6.26045e-05
7.07892e-05
7.85851e-05
8.55653e-05
9.16402e-05
9.6794e-05
0.000101162
0.000104914
0.000108192
0.000111103
0.000113734
0.000116146
0.000118385
0.00012048
0.00012245
0.000124307
0.00012606
0.000127711
0.000129266
0.000130726
0.000132096
0.000133377
0.000134573
0.000136062
7.03363e-05
5.68508e-05
4.49206e-05
4.56975e-05
5.0908e-05
5.85488e-05
6.72754e-05
7.61288e-05
8.44725e-05
9.18491e-05
9.82369e-05
0.0001036
0.000108138
0.000112027
0.000115404
0.000118384
0.000121062
0.000123508
0.000125772
0.000127888
0.000129877
0.00013175
0.000133515
0.000135179
0.000136744
0.000138214
0.000139591
0.000140879
0.00014208
0.000143596
7.1756e-05
5.87631e-05
4.71667e-05
4.8442e-05
5.43449e-05
6.27843e-05
7.22838e-05
8.18086e-05
9.06895e-05
9.84588e-05
0.000105175
0.000110799
0.000115566
0.00011962
0.000123099
0.000126139
0.000128851
0.000131315
0.000133588
0.000135707
0.000137694
0.000139565
0.000141326
0.000142985
0.000144544
0.000146008
0.00014738
0.000148662
0.000149858
0.000151389
7.32292e-05
6.07404e-05
4.95684e-05
5.14195e-05
5.80796e-05
6.73648e-05
7.76595e-05
8.78699e-05
9.73087e-05
0.000105592
0.000112768
0.000119084
0.000124414
0.000128855
0.000132588
0.000135788
0.000138592
0.000141105
0.000143397
0.000145516
0.000147492
0.000149346
0.00015109
0.000152732
0.000154277
0.000155729
0.000157093
0.00015837
0.000159563
0.000161125
7.47657e-05
6.28023e-05
5.21382e-05
5.46519e-05
6.21416e-05
7.23242e-05
8.34505e-05
9.44288e-05
0.000104609
0.000114133
0.000122374
0.000129226
0.000134855
0.000139495
0.000143375
0.000146687
0.000149583
0.000152174
0.000154535
0.000156718
0.000158755
0.000160668
0.000162469
0.000164166
0.000165765
0.000167269
0.000168682
0.000170007
0.000171246
0.000172886
7.6381e-05
6.49565e-05
5.48889e-05
5.8163e-05
6.65639e-05
7.77076e-05
8.97746e-05
0.000101927
0.000113684
0.00012408
0.000132852
0.000140075
0.000145969
0.000150797
0.000154813
0.000158227
0.000161207
0.000163871
0.0001663
0.00016855
0.000170654
0.000172633
0.000174501
0.000176265
0.000177929
0.000179498
0.000180974
0.00018236
0.000183657
0.000185389
7.80922e-05
6.72137e-05
5.78343e-05
6.19782e-05
7.13859e-05
8.35989e-05
9.70396e-05
0.000110888
0.00012367
0.000134776
0.000144063
0.000151649
0.000157791
0.000162786
0.000166917
0.000170416
0.000173464
0.000176189
0.000178678
0.000180988
0.000183155
0.000185199
0.000187133
0.000188963
0.000190695
0.00019233
0.000193871
0.00019532
0.000196678
0.000198508
7.99179e-05
6.95858e-05
6.099e-05
6.61261e-05
7.66649e-05
9.02308e-05
0.000105614
0.000120735
0.00013447
0.000146292
0.000156087
0.000164016
0.000170379
0.000175516
0.000179738
0.000183302
0.000186403
0.000189176
0.000191715
0.000194078
0.000196302
0.000198407
0.000200405
0.000202301
0.0002041
0.000205802
0.00020741
0.000208924
0.000210344
0.000212276
8.18778e-05
7.20866e-05
6.43732e-05
7.0641e-05
8.25233e-05
9.81536e-05
0.000115077
0.000131455
0.000146175
0.000158714
0.000168999
0.000177242
0.000183797
0.000189047
0.000193336
0.000196944
0.00020008
0.000202888
0.000205466
0.000207875
0.000210151
0.000212313
0.000214372
0.000216334
0.0002182
0.00021997
0.000221645
0.000223226
0.000224711
0.000226749
8.3992e-05
7.47288e-05
6.80042e-05
7.55732e-05
8.93355e-05
0.000106898
0.000125447
0.000143152
0.000158881
0.000172131
0.00018288
0.000191406
0.000198121
0.000203452
0.000207781
0.00021141
0.000214562
0.000217391
0.000219997
0.000222443
0.000224765
0.000226981
0.0002291
0.000231126
0.000233058
0.000234897
0.000236642
0.00023829
0.000239842
0.000241991
8.62804e-05
7.75527e-05
7.1909e-05
8.1029e-05
9.70294e-05
0.000116561
0.000136835
0.000155932
0.000172689
0.000186637
0.000197824
0.000206598
0.000213435
0.000218815
0.000223154
0.000226779
0.000229927
0.00023276
0.000235383
0.000237857
0.000240219
0.000242484
0.000244661
0.00024675
0.00024875
0.000250658
0.000252473
0.000254191
0.000255812
0.000258077
8.87541e-05
8.06229e-05
7.61314e-05
8.7315e-05
0.000105535
0.000127215
0.000149352
0.000169909
0.000187711
0.000202344
0.000213936
0.000222919
0.000229839
0.000235231
0.000239548
0.000243141
0.000246264
0.000249084
0.00025171
0.000254203
0.000256598
0.000258909
0.000261141
0.000263292
0.000265358
0.000267337
0.000269223
0.000271013
0.000272703
0.00027509
9.14337e-05
8.39635e-05
8.0787e-05
9.42434e-05
0.000114924
0.000138976
0.000163119
0.000185209
0.000204074
0.000219377
0.000231339
0.000240488
0.000247447
0.00025281
0.000257069
0.000260602
0.000263675
0.000266464
0.000269079
0.000271581
0.000274001
0.000276352
0.000278635
0.000280847
0.00028298
0.000285028
0.000286987
0.000288849
0.000290612
0.000293126
9.43462e-05
8.75845e-05
8.59606e-05
0.000101848
0.00012529
0.000151963
0.000178272
0.000201974
0.000221924
0.000237877
0.000250171
0.000259439
0.000266389
0.000271678
0.000275842
0.000279282
0.000282279
0.000285016
0.000287604
0.000290102
0.000292539
0.000294924
0.000297255
0.000299524
0.000301722
0.000303841
0.000305872
0.000307808
0.000309644
0.000312292
9.75202e-05
9.14872e-05
9.15539e-05
0.00011019
0.000136736
0.000166304
0.000194958
0.000220363
0.00024142
0.000258006
0.00027059
0.000279925
0.000286814
0.000291981
0.000296006
0.000299318
0.00030221
0.000304872
0.000307415
0.000309896
0.00031234
0.000314752
0.000317125
0.000319449
0.00032171
0.000323898
0.000326001
0.000328011
0.000329921
0.000332708
0.000100987
9.57126e-05
9.76281e-05
0.000119345
0.00014937
0.000182142
0.000213343
0.000240552
0.000262747
0.000279945
0.000292774
0.00030212
0.000308892
0.000313884
0.000317723
0.000320867
0.000323623
0.000326184
0.000328662
0.00033111
0.000333549
0.000335979
0.000338388
0.000340761
0.000343083
0.000345337
0.000347512
0.000349596
0.00035158
0.000354512
0.000104783
0.000100299
0.000104228
0.000129395
0.000163313
0.000199633
0.000233606
0.000262739
0.000286106
0.0003039
0.000316927
0.000326225
0.000332816
0.000337574
0.000341177
0.000344109
0.000346692
0.000349124
0.000351513
0.00035391
0.00035633
0.000358767
0.000361204
0.000363622
0.000365999
0.000368318
0.000370562
0.000372718
0.000374775
0.000377859
0.000108948
0.000105292
0.00011141
0.000140428
0.000178695
0.000218943
0.000255946
0.00028714
0.000311726
0.000330102
0.000343278
0.000352463
0.000358805
0.000363266
0.000366576
0.000369248
0.000371618
0.000373887
0.000376161
0.000378487
0.000380872
0.000383303
0.000385758
0.000388212
0.000390639
0.000393018
0.000395328
0.000397554
0.000399684
0.000402925
0.000113527
0.000110741
0.000119245
0.000152542
0.000195655
0.000240254
0.000280578
0.000313996
0.00033986
0.000358808
0.000372084
0.000381088
0.00038711
0.000391204
0.000394157
0.000396516
0.000398628
0.000400697
0.000402827
0.000405056
0.000407386
0.000409796
0.000412257
0.000414738
0.000417208
0.00041964
0.000422012
0.000424304
0.000426505
0.00042991
0.000118571
0.000116704
0.000127805
0.000165846
0.000214343
0.000263759
0.000307734
0.000343566
0.000370787
0.000390307
0.000403635
0.000412387
0.000418011
0.000421662
0.000424192
0.000426177
0.000427981
0.000429808
0.000431758
0.000433863
0.000436115
0.000438486
0.000440939
0.000443434
0.000445937
0.000448416
0.000450843
0.000453198
0.000455466
0.000459042
0.000124139
0.000123245
0.000137173
0.000180456
0.00023492
0.000289661
0.000337661
0.000376135
0.000404814
0.000424917
0.000438254
0.000446683
0.000451826
0.000454954
0.000456985
0.00045853
0.000459969
0.000461506
0.000463238
0.000465186
0.000467334
0.000469645
0.000472071
0.000474568
0.000477092
0.000479608
0.000482083
0.000484495
0.000486826
0.000490579
0.000130297
0.000130438
0.00014744
0.000196499
0.000257554
0.000318172
0.000370622
0.000412007
0.000442275
0.000462991
0.000476301
0.000484337
0.000488914
0.000491431
0.000492881
0.000493915
0.000494925
0.00049612
0.000497588
0.000499343
0.000501357
0.000503581
0.000505961
0.000508441
0.000510974
0.000513515
0.00051603
0.000518491
0.00052088
0.000524816
0.000137121
0.000138363
0.000158701
0.000214112
0.000282421
0.00034951
0.000406887
0.000451504
0.000483532
0.000504915
0.000518175
0.00052575
0.000529674
0.000531489
0.000532271
0.000532713
0.000533225
0.000534017
0.000535172
0.000536691
0.000538536
0.000540646
0.000542955
0.0005454
0.000547924
0.000550478
0.000553022
0.000555524
0.000557964
0.00056209
0.000144699
0.00014711
0.000171052
0.000233435
0.000309708
0.000383891
0.000446732
0.00049496
0.000528968
0.000551106
0.000564313
0.000571368
0.000574554
0.000575572
0.000575591
0.000575356
0.000575293
0.000575618
0.000576403
0.00057764
0.000579276
0.000581238
0.000583449
0.000585836
0.000588333
0.000590884
0.000593444
0.000595977
0.000598458
0.000602779
0.000153132
0.000156789
0.000184605
0.000254607
0.000339592
0.000421526
0.000490426
0.000542713
0.000578985
0.000602011
0.000615188
0.000621679
0.000624047
0.000624172
0.000623332
0.000622327
0.000621607
0.000621391
0.000621745
0.000622647
0.00062403
0.000625808
0.000627891
0.000630193
0.000632641
0.000635171
0.000637732
0.000640283
0.000642794
0.000647316
0.000162537
0.000167522
0.000199497
0.000277761
0.000372234
0.000462621
0.000538217
0.000595092
0.000633989
0.000658096
0.000671307
0.000677215
0.000678694
0.000677835
0.000676036
0.000674165
0.0006727
0.000671866
0.00067172
0.000672229
0.000673311
0.000674864
0.000676783
0.000678973
0.000681347
0.000683836
0.00068638
0.000688933
0.000691461
0.000696188
0.000173047
0.000179448
0.000215885
0.000303031
0.00040778
0.000507349
0.00059031
0.000652394
0.000694371
0.000719831
0.000733197
0.000738538
0.000739082
0.000737154
0.0007343
0.000731465
0.000729164
0.000727628
0.000726912
0.000726966
0.000727694
0.000728976
0.000730694
0.000732738
0.000735013
0.000737436
0.000739943
0.00074248
0.000745008
0.000749945
0.000184821
0.000192725
0.000233943
0.00033056
0.000446346
0.000555819
0.000646841
0.000714858
0.000760483
0.000787666
0.000801388
0.000806233
0.000805826
0.000802766
0.000798769
0.000794876
0.000791647
0.000789326
0.000787964
0.000787499
0.000787816
0.00078878
0.000790256
0.00079212
0.000794263
0.000796595
0.000799042
0.000801544
0.000804053
0.000809204
0.000198047
0.000207542
0.000253868
0.000360493
0.000487993
0.000608049
0.000707852
0.000782622
0.000832589
0.000861996
0.000876381
0.000880878
0.000879558
0.000875334
0.000870128
0.000865093
0.00086085
0.000857662
0.000855579
0.000854528
0.000854377
0.000854973
0.000856164
0.000857812
0.000859793
0.000862006
0.000864368
0.000866812
0.000869281
0.000874655
0.000212951
0.000224124
0.000275885
0.000392972
0.00053269
0.000663962
0.000773273
0.000855669
0.000910811
0.000943103
0.000958599
0.000963006
0.000960888
0.000955524
0.000949074
0.000942839
0.000937509
0.000933381
0.000930509
0.000928809
0.000928135
0.000928315
0.000929179
0.000930573
0.00093236
0.000934426
0.000936678
0.00093904
0.000941451
0.000947055
0.0002298
0.000242742
0.000300255
0.000428125
0.000580353
0.000723321
0.000842814
0.000933762
0.000995058
0.00103108
0.00104832
0.00105304
0.00105035
0.00104395
0.00103629
0.00102883
0.00102237
0.00101725
0.00101353
0.00101113
0.00100989
0.00100961
0.0010101
0.00101121
0.00101277
0.00101467
0.00101679
0.00101905
0.00102138
0.00102723
0.000248908
0.000263725
0.000327287
0.00046608
0.000630935
0.000785489
0.000915805
0.00101638
0.00108493
0.00112574
0.00114556
0.00115121
0.00114834
0.00114113
0.00113236
0.00112373
0.00111614
0.00111001
0.00110542
0.00110229
0.00110044
0.00109966
0.00109977
0.00110056
0.00110188
0.00110358
0.00110554
0.00110768
0.00110993
0.00111605
0.000270701
0.000287475
0.000357342
0.000506978
0.000684047
0.000850174
0.000991425
0.00110262
0.00117962
0.00122648
0.00125001
0.00125743
0.00125498
0.00124735
0.00123772
0.00122806
0.00121943
0.00121233
0.00120688
0.00120301
0.00120055
0.00119928
0.00119898
0.00119945
0.00120051
0.001202
0.00120381
0.00120582
0.00120797
0.0012144
0.00029571
0.000314529
0.000390811
0.000551194
0.000739052
0.000916558
0.00106918
0.0011912
0.00127786
0.00133221
0.00136081
0.00137115
0.00136998
0.00136255
0.0013525
0.0013421
0.00133262
0.00132467
0.00131845
0.00131391
0.00131087
0.00130913
0.00130844
0.0013086
0.00130941
0.0013107
0.00131236
0.00131425
0.00131632
0.0013231
0.000324485
0.000345598
0.000428667
0.000598364
0.000795923
0.000984058
0.00114752
0.00128066
0.00137788
0.00144122
0.00147649
0.00149118
0.00149248
0.00148616
0.00147635
0.00146569
0.00145571
0.00144718
0.00144037
0.0014353
0.00143179
0.00142965
0.00142864
0.00142854
0.00142914
0.00143028
0.0014318
0.0014336
0.00143562
0.00144283
0.000357854
0.000381311
0.000471592
0.000649222
0.000854286
0.00105169
0.00122508
0.00136909
0.00147758
0.00155122
0.00159485
0.00161561
0.00162086
0.00161687
0.00160826
0.00159809
0.00158817
0.00157948
0.00157242
0.00156706
0.00156329
0.00156091
0.00155971
0.00155944
0.00155992
0.00156096
0.00156242
0.00156417
0.0015662
0.00157393
0.000396856
0.000422606
0.000519849
0.000704899
0.000913918
0.00111861
0.00130067
0.00145474
0.00157459
0.0016595
0.00171305
0.00174167
0.00175263
0.0017525
0.00174637
0.00173769
0.00172865
0.00172045
0.00171364
0.0017084
0.00170468
0.00170232
0.00170113
0.00170087
0.00170137
0.00170243
0.00170392
0.00170571
0.00170785
0.00171621
0.00044279
0.000470733
0.000574029
0.000763738
0.000975373
0.00118458
0.00137353
0.00153619
0.00166678
0.00176323
0.00182783
0.00186595
0.00188444
0.00188991
0.00188777
0.0018819
0.0018748
0.00186795
0.0018621
0.00185755
0.00185435
0.0018524
0.00185151
0.00185152
0.00185223
0.00185349
0.00185515
0.0018571
0.00185948
0.00186861
0.000497408
0.000527224
0.000635086
0.000825674
0.00103812
0.00124959
0.00144342
0.00161287
0.00175266
0.00186003
0.00193603
0.0019848
0.00201237
0.00202514
0.00202864
0.00202702
0.00202313
0.0020187
0.00201471
0.0020116
0.00200952
0.00200845
0.00200829
0.00200888
0.00201008
0.00201175
0.00201375
0.00201601
0.0020188
0.00202884
0.000563173
0.000594245
0.000704355
0.000894765
0.00110185
0.00131566
0.00151034
0.00168497
0.00183183
0.00194856
0.00203529
0.00209494
0.00213254
0.00215394
0.00216451
0.00216857
0.00216918
0.00216832
0.00216717
0.00216633
0.00216608
0.00216648
0.00216751
0.00216906
0.00217104
0.00217334
0.00217588
0.00217861
0.00218198
0.00219303
0.000643595
0.000674337
0.000782217
0.000966655
0.00116586
0.00138185
0.00157742
0.00175346
0.00190518
0.00202903
0.00212478
0.00219443
0.002242
0.0022726
0.00229116
0.00230191
0.00230805
0.00231175
0.00231435
0.00231659
0.00231885
0.00232128
0.00232395
0.00232682
0.00232985
0.00233299
0.0023362
0.0023395
0.00234358
0.00235568
0.000741304
0.00076921
0.000818805
0.00100313
0.00123586
0.00145115
0.00164659
0.00182164
0.00197482
0.00210317
0.00220556
0.0022833
0.00233967
0.00237902
0.00240562
0.00242338
0.00243552
0.00244435
0.00245127
0.00245713
0.00246237
0.00246724
0.00247187
0.00247629
0.00248052
0.00248458
0.00248848
0.00249235
0.00249718
0.00251018
0.000801291
0.000783656
0.000809866
0.000977475
0.00124522
0.00151131
0.00172039
0.00189335
0.00204492
0.0021742
0.00228037
0.00236362
0.00242682
0.00247366
0.00250743
0.00253159
0.00254941
0.00256326
0.00257458
0.00258416
0.0025925
0.00259988
0.0026065
0.00261247
0.00261787
0.00262274
0.00262719
0.00263148
0.00263691
0.00265048
0.000803225
0.000783527
0.000802174
0.000960432
0.00122388
0.0014908
0.00173812
0.00195969
0.00211975
0.00224733
0.00235406
0.00243958
0.00250701
0.00255949
0.00259889
0.00262811
0.00265057
0.0026688
0.00268407
0.00269702
0.0027081
0.00271766
0.00272597
0.00273322
0.0027395
0.00274492
0.00274963
0.00275404
0.00275976
0.00277335
0.00080531
0.00078365
0.000794938
0.000936557
0.00120472
0.00147057
0.00171661
0.00193872
0.00213214
0.00229726
0.00243287
0.00251784
0.00258628
0.00264185
0.00268451
0.00271675
0.00274254
0.00276433
0.00278297
0.00279877
0.00281199
0.00282308
0.00283251
0.00284059
0.00284744
0.00285315
0.00285785
0.00286212
0.00286775
0.00288074
0.000807499
0.000784062
0.000788514
0.000918901
0.00117901
0.00145071
0.00169426
0.00191561
0.00210926
0.00227501
0.00241557
0.00253408
0.00263407
0.00271825
0.00277293
0.00280579
0.00283266
0.00285632
0.00287706
0.00289472
0.00290912
0.00292075
0.00293054
0.00293909
0.00294645
0.00295251
0.00295731
0.00296141
0.00296668
0.00297843
0.000809829
0.000784787
0.000782624
0.000901684
0.00116045
0.00142404
0.00167002
0.00189086
0.00208465
0.00225079
0.00239169
0.00251041
0.00261061
0.00269505
0.00276627
0.00282637
0.00287715
0.00292007
0.00295642
0.00298721
0.00300785
0.00301814
0.00302661
0.00303475
0.00304231
0.00304882
0.00305401
0.00305819
0.00306295
0.00307282
0.000812326
0.000785858
0.000777286
0.000884031
0.00113204
0.00140194
0.00164525
0.00186456
0.00205835
0.0022249
0.00236621
0.00248513
0.00258543
0.00266984
0.00274095
0.00280087
0.00285144
0.00289413
0.00293027
0.00296086
0.00298684
0.0030089
0.0030277
0.00304374
0.00305746
0.0030692
0.0030793
0.00308796
0.00309545
0.0031019
0.000815008
0.000787306
0.000772578
0.000866651
0.00110102
0.00137215
0.00161937
0.00183662
0.00203026
0.00219723
0.00233905
0.0024583
0.00255886
0.00264338
0.00271449
0.0027743
0.00282472
0.00286722
0.00290313
0.00293349
0.00295922
0.00298102
0.00299958
0.00301537
0.00302886
0.00304036
0.00305024
0.00305869
0.00306599
0.00307213
0.000817904
0.000789154
0.000768565
0.000849589
0.00107762
0.00133773
0.00159298
0.00180689
0.00200026
0.0021677
0.00231012
0.00242983
0.00253078
0.00261555
0.00268678
0.00274664
0.00279702
0.00283944
0.00287523
0.00290543
0.00293098
0.00295258
0.00297093
0.00298647
0.00299972
0.00301091
0.00302049
0.00302862
0.00303561
0.00304161
0.000821034
0.000791418
0.000765319
0.000832217
0.00104618
0.00130428
0.00155917
0.00177364
0.00196781
0.00213606
0.00227927
0.00239961
0.00250107
0.00258619
0.00265767
0.00271767
0.00276813
0.00281056
0.00284634
0.00287646
0.00290193
0.00292339
0.00294158
0.00295685
0.00296984
0.0029808
0.00299016
0.00299813
0.00300498
0.00301085
0.000824404
0.000794111
0.000762987
0.000815629
0.00101015
0.00127102
0.00152024
0.00173753
0.00193303
0.00210229
0.0022464
0.00236755
0.00246961
0.0025552
0.00262702
0.00268725
0.00273788
0.0027804
0.00281624
0.00284639
0.00287186
0.00289324
0.0029114
0.00292631
0.002939
0.00294977
0.00295897
0.00296681
0.00297353
0.00297929
0.00082801
0.000797235
0.00076163
0.000800462
0.000971376
0.00123772
0.00148761
0.00170142
0.00189673
0.00206661
0.00221156
0.00233358
0.00243633
0.00252246
0.0025947
0.00265524
0.00270609
0.00274877
0.00278473
0.00281496
0.00284055
0.00286141
0.00287908
0.00289397
0.00290662
0.00291735
0.00292649
0.00293428
0.00294095
0.00294665
0.000831847
0.000800787
0.000761268
0.000787031
0.000940869
0.00119981
0.00144762
0.00166224
0.00185805
0.0020287
0.00217459
0.00229759
0.0024011
0.00248787
0.00256062
0.00262153
0.00267265
0.00271548
0.0027515
0.00278167
0.00280718
0.00282798
0.00284559
0.00286045
0.00287307
0.00288376
0.00289287
0.00290062
0.00290724
0.0029129
0.000835905
0.000804757
0.000761905
0.000774969
0.000910531
0.00115416
0.00140221
0.00162068
0.001817
0.0019885
0.00213539
0.00225945
0.00236383
0.00245133
0.00252469
0.00258609
0.00263759
0.00268066
0.0027168
0.00274671
0.00277186
0.00279285
0.00281057
0.0028255
0.00283814
0.00284884
0.00285793
0.00286566
0.00287226
0.00287788
0.000840167
0.000809132
0.000763565
0.000764546
0.000881314
0.00110514
0.00136417
0.00158038
0.00177467
0.00194641
0.00209412
0.00221922
0.00232446
0.00241275
0.0024868
0.0025488
0.00260084
0.00264442
0.00268111
0.00271079
0.00273579
0.00275672
0.0027744
0.0027893
0.00280191
0.00281258
0.00282165
0.00282934
0.00283591
0.0028415
0.000844615
0.000813889
0.000766244
0.000755951
0.000853797
0.00106391
0.00131925
0.00153573
0.00172939
0.00190192
0.00205064
0.00217682
0.00228291
0.00237203
0.00244678
0.00250933
0.00256183
0.00260574
0.00264268
0.00267251
0.00269761
0.00271863
0.00273637
0.00275131
0.00276394
0.00277463
0.00278369
0.00279138
0.00279793
0.0028035
0.000849227
0.000819001
0.000769913
0.000749327
0.000827686
0.0010216
0.0012691
0.00148895
0.00168221
0.00185538
0.00200505
0.00213227
0.00223922
0.0023292
0.00240468
0.00246783
0.00252081
0.00256508
0.0026023
0.00263233
0.00265758
0.00267872
0.00269654
0.00271154
0.00272422
0.00273492
0.002744
0.00275169
0.00275824
0.0027638
0.000853979
0.000824432
0.000774519
0.000744808
0.000803452
0.000978598
0.00121544
0.00144511
0.00163457
0.00180719
0.00195739
0.00208548
0.0021934
0.00228423
0.00236045
0.00242423