/*--------------------------------*- C++ -*----------------------------------*\
| =========                 |                                                 |
| \\      /  F ield         | OpenFOAM: The Open Source CFD Toolbox           |
|  \\    /   O peration     | Version:  2312                                  |
|   \\  /    A nd           | Website:  www.openfoam.com                      |
|    \\/     M anipulation  |                                                 |
\*---------------------------------------------------------------------------*/
FoamFile
{
    version     2.0;
    format      ascii;
    arch        "LSB;label=32;scalar=64";
    class       volScalarField;
    location    "20000";
    object      omega;
}
// * * * * * * * * * * * * * * * * * * * * * * * * * * * * * * * * * * * * * //

dimensions      [0 0 -1 0 0 0 0];

internalField   nonuniform List<scalar> 
29400
(
1.57178e+06
1.5718e+06
1.5718e+06
1.57181e+06
1.57181e+06
1.57181e+06
1.57181e+06
1.57182e+06
1.57182e+06
1.57182e+06
1.57182e+06
1.57182e+06
1.57182e+06
1.57182e+06
1.57182e+06
1.57182e+06
1.57182e+06
1.57182e+06
1.57182e+06
1.57182e+06
1.57182e+06
1.57182e+06
1.57182e+06
1.57182e+06
1.57182e+06
1.57182e+06
1.57182e+06
1.57182e+06
1.57182e+06
1.57182e+06
260539
261088
261852
262623
263551
264567
265616
266650
267633
268546
269377
270125
270791
271382
271902
272360
272762
273114
273424
273696
273935
274145
274331
274494
274638
274765
274878
274978
275067
275148
80754.7
81604.3
82651.7
83633.5
84752.8
85983
87277.3
88589.6
89880.4
91121
92292.7
93384.4
94391.3
95312.9
96151.7
96911.6
97598.1
98216.9
98773.9
99274.8
99725.1
100130
100493
100820
101113
101377
101614
101828
102021
102199
32477.2
33433.4
34519.7
35348.9
36193.9
37097.8
38056.2
39048.7
40052.6
41047.8
42017.7
42950
43835.9
44669.9
45448.9
46172.2
46840.3
47454.9
48018.7
48534.5
49005.5
49435
49826.9
50183.9
50508.9
50804.6
51073.4
51317.7
51539.8
51746
14802.8
15727.4
16829.7
17510.6
18086.2
18648.6
19226.6
19823.4
20433.7
21049.9
21663.5
22266.5
22851.9
23414.2
23949.2
24454.1
24927.3
25368.3
25777.3
26155.2
26503.3
26823.2
27116.5
27385.1
27630.9
27855.7
28061.1
28248.7
28420
28579.1
7672.74
8500.96
9585.22
10201.8
10655.3
11044.7
11414
11779.7
12147.2
12517
12886.7
13252.9
13611.9
13960
14293.9
14611.3
14910.4
15190.3
15450.6
15691.6
15913.8
16118.1
16305.1
16476.2
16632.5
16775.2
16905.4
17024.2
17132.5
17232.6
4678.39
5323.86
6372.69
6998.95
7428.79
7763.4
8053.87
8324.29
8585.96
8843.71
9098.79
9350.42
9596.78
9835.63
10064.8
10282.4
10487.1
10678.1
10855.1
11018.1
11167.6
11304.3
11428.8
11542.1
11644.9
11738.3
11823
11899.8
11969.5
12033
3265.58
3805.51
4869.53
5531.78
5974.06
6302.24
6572.46
6812.99
7038.3
7255.64
7468.02
7675.99
7878.64
8074.39
8261.49
8438.38
8603.92
8757.4
8898.58
9027.58
9144.84
9250.99
9346.79
9433.04
9510.59
9580.23
9642.76
9698.9
9749.32
9794.41
2532.37
3053.41
4146.05
4832.55
5287.51
5619.57
5887.22
6120.39
6335.06
6539.61
6737.93
6931.17
7118.86
7299.68
7472.08
7634.64
7786.26
7926.31
8054.57
8171.19
8276.63
8371.51
8456.6
8532.67
8600.55
8661.08
8715.02
8763.09
8805.94
8843.68
2145.71
2666.92
3760.32
4452.49
4912.45
5247.51
5516.1
5748.45
5961
6162.55
6357.32
6546.69
6730.33
6907.06
7075.37
7233.89
7381.57
7517.76
7642.28
7755.28
7857.22
7948.74
8030.6
8103.64
8168.66
8226.5
8277.9
8323.58
8364.18
8399.66
1934.29
2446.03
3513.52
4197.09
4655.08
4990.13
5259.06
5491.62
5704.14
5905.46
6099.84
6288.72
6471.8
6647.91
6815.58
6973.43
7120.43
7255.94
7379.77
7492.1
7593.36
7684.22
7765.44
7837.85
7902.28
7959.54
8010.4
8055.56
8095.66
8130.63
1806.03
2296.96
3322.32
3988.84
4440.34
4772.91
5040.95
5273.27
5485.84
5687.35
5881.97
6071.09
6254.4
6430.72
6598.57
6756.57
6903.69
7039.29
7163.19
7275.57
7376.87
7467.75
7548.99
7621.4
7685.83
7743.08
7793.93
7839.08
7879.16
7914.11
1715.58
2179.05
3154.41
3799.42
4241.73
4570.1
4836.11
5067.46
5279.62
5481
5675.67
5864.92
6048.39
6224.86
6392.85
6550.97
6698.18
6833.86
6957.83
7070.26
7171.6
7262.52
7343.78
7416.22
7480.68
7537.95
7588.83
7634
7674.12
7709.11
1642.32
2075.93
2998.21
3619.32
4050.71
4373.6
4636.63
4866.27
5077.41
5278.18
5472.47
5661.46
5844.73
6021.03
6188.85
6346.79
6493.82
6629.32
6753.1
6865.34
6966.51
7057.25
7138.36
7210.65
7274.97
7332.13
7382.91
7428
7468.05
7503
1577.48
1981.31
2849.79
3445.6
3864.8
4181.17
4440.37
4667.6
4877.14
5076.76
5270.19
5458.49
5641.12
5816.83
5984.09
6141.49
6287.98
6422.95
6546.21
6657.95
6758.64
6848.94
6929.63
7001.55
7065.54
7122.41
7172.94
7217.81
7257.66
7292.48
1517.48
1892.76
2707.85
3277.43
3683.39
3992.35
4246.96
4471.12
4678.49
4876.47
5068.58
5255.74
5437.3
5612.02
5778.35
5934.83
6080.43
6214.51
6336.93
6447.86
6547.8
6637.38
6717.43
6788.78
6852.29
6908.73
6958.91
7003.47
7043.06
7077.68
1460.83
1809.23
2571.9
3114.59
3506.43
3807.16
4056.49
4277.02
4481.74
4677.6
4868.01
5053.66
5233.8
5407.25
5572.38
5727.7
5872.18
6005.18
6126.58
6236.53
6335.59
6424.36
6503.7
6574.46
6637.51
6693.56
6743.42
6787.7
6827.08
6861.55
1406.85
1730.13
2441.74
2957.09
3334.04
3625.83
3869.28
4085.7
4287.36
4480.8
4669.31
4853.29
5031.86
5204.02
5367.95
5522.13
5665.55
5797.57
5918.08
6027.25
6125.61
6213.79
6292.62
6362.86
6425.4
6480.99
6530.42
6574.33
6613.37
6647.58
1355.15
1655.07
2317.22
2804.98
3166.4
3448.64
3685.75
3897.72
4096.17
4287.12
4473.81
4656.28
4833.52
5004.01
5166.23
5318.73
5460.55
5591.08
5710.22
5818.14
5915.37
6002.53
6080.45
6149.89
6211.71
6266.66
6315.53
6358.94
6397.54
6431.39
1305.48
1583.71
2198.24
2658.38
3003.77
3276
3506.46
3713.97
3909.33
4098.12
4282.36
4462.32
4637.15
4805.36
4965.4
5115.85
5255.75
5384.5
5502
5608.43
5704.32
5790.26
5867.09
5935.56
5996.52
6050.7
6098.88
6141.68
6179.75
6213.15
1257.63
1515.77
2084.72
2517.42
2846.45
3108.44
3332.3
3535.69
3727.57
3912.88
4093.85
4270.76
4442.72
4608.25
4765.77
4913.88
5051.6
5178.34
5294
5398.75
5493.11
5577.69
5653.29
5720.65
5780.63
5833.93
5881.33
5923.44
5960.89
5993.77
1211.45
1451.02
1976.56
2382.28
2694.88
2946.75
3164.52
3362.67
3549.96
3731.18
3908.43
4081.88
4250.64
4413.17
4567.9
4713.41
4848.73
4973.25
5086.89
5189.8
5282.49
5365.56
5439.81
5505.96
5564.86
5617.2
5663.74
5705.09
5741.86
5774.16
1166.81
1389.24
1873.67
2253.16
2549.66
2791.67
3002.08
3194.3
3376.52
3553.26
3726.42
3896.12
4061.37
4220.64
4372.33
4515.01
4647.72
4769.85
4881.3
4982.22
5073.11
5154.56
5227.35
5292.2
5349.93
5401.23
5446.85
5487.37
5523.41
5555.09
1123.61
1330.24
1775.93
2129.87
2410.63
2642.17
2844.79
3030.7
3207.51
3379.44
3548.23
3713.89
3875.39
4031.15
4179.56
4319.22
4449.14
4568.71
4677.82
4776.62
4865.59
4945.32
5016.56
5080.02
5136.51
5186.71
5231.34
5270.99
5306.25
5337.26
1081.78
1273.86
1683.25
2012.43
2277.49
2498.32
2692.83
2872.13
3043.26
3210.12
3374.29
3535.67
3693.16
3845.19
3990.13
4126.57
4253.53
4370.39
4477.02
4573.58
4660.53
4738.44
4808.04
4870.05
4925.23
4974.27
5017.86
5056.59
5091.02
5121.33
1041.25
1219.93
1595.5
1900.85
2150.33
2360.28
2546.45
2718.91
2884.14
3045.72
3205.04
3361.9
3515.17
3663.26
3804.53
3937.59
4061.42
4175.42
4279.46
4373.67
4458.5
4534.5
4602.39
4662.87
4716.69
4764.51
4807.03
4844.79
4878.36
4907.93
1001.96
1168.34
1512.56
1795.1
2029.23
2228.22
2405.92
2571.38
2730.53
2886.63
3040.9
3193.04
3341.89
3485.84
3623.27
3752.77
3873.33
3984.35
4085.68
4177.44
4260.06
4334.08
4400.2
4459.1
4511.5
4558.06
4599.45
4636.21
4668.89
4697.7
963.877
1118.96
1434.27
1695.16
1914.27
2102.34
2271.49
2429.84
2582.78
2733.25
2882.29
3029.52
3173.75
3313.39
3446.81
3572.61
3689.77
3797.7
3896.22
3985.45
4065.79
4137.77
4202.07
4259.33
4310.29
4355.55
4395.78
4431.51
4463.27
4491.28
926.974
1071.7
1360.49
1600.98
1805.53
1982.79
2143.4
2294.59
2441.23
2585.93
2729.59
2871.78
3011.26
3146.45
3275.72
3397.7
3511.37
3616.12
3711.77
3798.42
3876.44
3946.36
4008.8
4064.41
4113.89
4157.85
4196.91
4231.6
4262.43
4289.64
891.228
1026.47
1291.07
1512.49
1703.03
1869.72
2021.87
2165.9
2306.17
2445.05
2583.23
2720.21
2854.75
2985.29
3110.24
3228.23
3338.27
3439.74
3532.43
3616.43
3692.1
3759.91
3820.49
3874.45
3922.46
3965.11
4003.01
4036.68
4066.6
4093.02
856.626
983.199
1225.86
1429.6
1606.81
1763.23
1907.07
2044
2177.91
2310.87
2443.41
2574.99
2704.37
2830.04
2950.44
3064.24
3170.46
3268.47
3358.07
3439.31
3512.52
3578.16
3636.8
3689.06
3735.56
3776.88
3813.6
3846.22
3875.22
3900.85
823.162
941.826
1164.68
1352.19
1516.83
1663.39
1799.13
1929.06
2056.59
2183.52
2310.27
2436.25
2560.28
2680.87
2796.51
2905.91
3008.11
3102.49
3188.82
3267.15
3337.77
3401.12
3457.74
3508.2
3553.12
3593.04
3628.52
3660.05
3688.08
3712.87
790.835
902.299
1107.39
1280.13
1433.04
1570.22
1698.14
1821.16
1942.3
2063.12
2183.94
2304.19
2422.68
2538
2648.69
2753.5
2851.49
2942.06
3024.96
3100.22
3168.12
3229.05
3283.53
3332.11
3375.35
3413.8
3447.98
3478.35
3505.36
3529.26
759.647
864.576
1053.83
1213.29
1355.37
1483.71
1604.09
1720.33
1835.1
1949.76
2064.56
2178.93
2291.75
2401.63
2507.2
2607.24
2700.85
2787.44
2866.76
2938.82
3003.85
3062.24
3114.48
3161.06
3202.55
3239.44
3272.24
3301.4
3327.33
3350.29
729.606
828.62
1003.84
1151.48
1283.69
1403.77
1516.93
1626.55
1734.99
1843.47
1952.19
2060.59
2167.6
2271.92
2372.22
2467.35
2556.43
2638.89
2714.48
2783.19
2845.24
2900.98
2950.86
2995.37
3035.01
3070.27
3101.62
3129.5
3154.28
3176.25
700.72
794.393
957.272
1094.53
1217.84
1330.27
1436.57
1539.75
1641.95
1744.25
1846.84
1949.19
2050.31
2148.95
2243.87
2333.97
2418.4
2496.61
2568.34
2633.59
2692.55
2745.53
2792.96
2835.29
2873
2906.55
2936.4
2962.93
2986.52
3007.44
672.999
761.869
913.984
1042.26
1157.64
1263.04
1362.86
1459.82
1555.87
1652.01
1748.46
1844.73
1939.9
2032.8
2122.26
2207.23
2286.91
2360.76
2428.54
2490.23
2545.99
2596.12
2641.01
2681.09
2716.8
2748.58
2776.84
2801.97
2824.32
2844.14
646.455
731.025
873.835
994.456
1102.87
1201.89
1295.63
1386.59
1476.6
1566.66
1656.98
1747.16
1836.35
1923.47
2007.41
2087.2
2162.06
2231.49
2295.24
2353.28
2405.77
2452.97
2495.25
2533.01
2566.65
2596.59
2623.22
2646.9
2667.96
2686.62
621.098
701.842
836.693
950.907
1053.29
1146.57
1234.64
1319.85
1403.98
1488.03
1572.27
1656.39
1739.61
1820.94
1899.35
1973.92
2043.93
2108.88
2168.55
2222.9
2272.05
2316.27
2355.88
2391.26
2422.78
2450.83
2475.78
2497.97
2517.69
2535.15
596.942
674.302
802.426
911.398
1008.65
1096.82
1179.63
1259.36
1337.77
1415.93
1494.17
1572.28
1649.57
1725.14
1798.04
1867.4
1932.55
1993.01
2048.58
2099.19
2144.98
2186.17
2223.08
2256.03
2285.4
2311.52
2334.76
2355.41
2373.75
2389.99
573.997
648.385
770.906
875.712
968.681
1052.35
1130.31
1204.83
1277.73
1350.13
1422.49
1494.68
1566.12
1636
1703.43
1767.62
1827.92
1883.91
1935.37
1982.25
2024.66
2062.81
2096.99
2127.5
2154.68
2178.86
2200.35
2219.44
2236.39
2251.36
552.27
624.073
742.011
843.63
933.1
1012.85
1086.36
1155.97
1223.56
1290.38
1357.01
1423.4
1489.1
1553.37
1615.42
1674.5
1730.02
1781.58
1828.96
1872.12
1911.17
1946.28
1977.73
2005.79
2030.78
2053
2072.73
2090.25
2105.79
2119.49
531.767
601.343
715.617
814.934
901.621
977.989
1047.46
1112.45
1174.97
1236.42
1297.48
1358.24
1418.33
1477.13
1533.9
1587.97
1638.78
1685.97
1729.34
1768.83
1804.55
1836.65
1865.38
1891.01
1913.82
1934.09
1952.07
1968.02
1982.14
1994.56
512.488
580.17
691.601
789.407
873.955
947.451
1013.27
1073.93
1131.65
1187.94
1243.63
1298.94
1353.6
1407.08
1458.71
1507.89
1554.12
1597.03
1636.46
1672.36
1704.8
1733.94
1760.01
1783.24
1803.89
1822.22
1838.47
1852.86
1865.58
1876.71
494.43
560.524
669.847
766.836
849.814
920.902
983.429
1040.08
1093.25
1144.63
1195.2
1245.27
1294.7
1343.03
1389.69
1434.14
1475.9
1514.67
1550.26
1582.65
1611.9
1638.15
1661.61
1682.49
1701.03
1717.46
1732.01
1744.87
1756.19
1766.06
477.584
542.374
650.24
747.013
828.913
898.011
957.6
1010.55
1059.45
1106.19
1151.87
1196.95
1241.36
1284.76
1326.65
1366.53
1403.99
1438.75
1470.64
1499.63
1525.79
1549.23
1570.16
1588.75
1605.24
1619.83
1632.72
1644.08
1654.05
1662.69
461.937
525.682
632.683
729.74
810.973
878.459
935.44
984.98
1029.91
1072.28
1113.35
1153.69
1193.34
1232.03
1269.36
1304.87
1338.21
1369.12
1397.45
1423.18
1446.36
1467.11
1485.59
1501.99
1516.5
1529.31
1540.59
1550.51
1559.16
1566.6
447.469
510.391
617.461
714.95
795.728
861.932
916.616
963.047
1004.29
1042.59
1079.34
1115.21
1150.36
1184.6
1217.58
1248.95
1278.36
1305.6
1330.55
1353.16
1373.49
1391.66
1407.81
1422.11
1434.72
1445.82
1455.57
1464.09
1471.49
1477.78
434.157
496.43
604.708
702.843
782.936
848.133
900.81
944.419
982.275
1016.79
1049.51
1081.21
1112.13
1142.17
1171.08
1198.52
1224.22
1247.99
1269.72
1289.38
1307.02
1322.74
1336.67
1348.97
1359.79
1369.27
1377.55
1384.76
1390.95
1396.15
421.97
483.741
593.868
693.042
772.382
836.781
887.718
928.781
963.539
994.579
1023.56
1051.38
1078.36
1104.49
1129.57
1153.33
1175.55
1196.06
1214.76
1231.64
1246.74
1260.16
1272
1282.42
1291.54
1299.49
1306.4
1312.35
1317.42
1321.59
410.874
472.287
584.436
684.948
763.947
827.627
877.054
915.837
947.782
975.639
1001.19
1025.43
1048.77
1071.26
1092.77
1113.11
1132.08
1149.54
1165.41
1179.7
1192.43
1203.69
1213.59
1222.24
1229.78
1236.3
1241.92
1246.71
1250.71
1253.93
400.812
462.331
576.124
678.122
757.34
820.434
868.552
905.306
934.713
959.681
982.104
1003.06
1023.04
1042.18
1060.41
1077.58
1093.54
1108.17
1121.42
1133.3
1143.82
1153.09
1161.18
1168.2
1174.27
1179.47
1183.89
1187.59
1190.62
1192.97
391.726
453.743
568.743
672.272
752.166
814.966
861.963
896.93
924.064
946.423
966.008
983.977
1000.9
1016.97
1032.18
1046.44
1059.63
1071.66
1082.5
1092.15
1100.66
1108.08
1114.5
1120.03
1124.74
1128.71
1132.04
1134.75
1136.88
1138.44
383.568
446.195
562.142
667.198
748.067
811.024
857.062
890.472
915.583
935.604
952.632
967.901
982.047
995.329
1007.79
1019.39
1030.05
1039.71
1048.35
1055.97
1062.62
1068.36
1073.26
1077.41
1080.89
1083.75
1086.07
1087.88
1089.21
1090.05
376.285
439.447
556.199
662.749
744.728
808.429
853.67
885.717
909.039
926.979
941.719
954.563
966.209
976.971
986.951
996.142
1004.51
1012.01
1018.65
1024.43
1029.4
1033.61
1037.14
1040.05
1042.4
1044.26
1045.67
1046.67
1047.27
1047.48
369.819
433.348
550.808
658.804
741.885
806.927
851.613
882.465
904.222
920.322
933.029
943.71
953.118
961.62
969.366
976.392
982.693
988.257
993.09
997.214
1000.67
1003.51
1005.8
1007.59
1008.94
1009.89
1010.49
1010.77
1010.73
1010.39
364.142
427.793
545.874
655.265
739.518
806.863
850.566
880.531
900.941
915.428
926.342
935.105
942.522
949.011
954.764
959.854
964.309
968.137
971.358
974
976.104
977.72
978.899
979.691
980.144
980.297
980.181
979.819
979.222
978.397
359.135
422.676
541.312
652.05
737.304
807.911
850.799
879.755
899.02
912.11
921.453
928.528
934.189
938.895
942.879
946.252
949.067
951.354
953.142
954.468
955.373
955.902
956.099
956.01
955.671
955.117
954.371
953.452
952.371
951.135
354.789
418.597
536.908
649.446
737.173
808.758
851.65
880.202
898.301
910.196
918.176
923.778
927.898
931.037
933.464
935.323
936.691
937.618
938.144
938.309
938.157
937.728
937.064
936.199
935.168
933.995
932.702
931.303
929.807
928.222
350.868
414.927
535.323
646.94
737.696
809.955
853.145
881.323
898.78
909.529
916.34
920.667
923.448
925.218
926.284
926.817
926.92
926.655
926.075
925.223
924.146
922.881
921.464
919.925
918.292
916.585
914.821
913.012
911.164
909.286
347.305
410.917
534.066
646.213
738.787
811.591
855.193
883.154
900.06
910.057
915.796
919.022
920.649
921.234
921.119
920.5
919.501
918.202
916.656
914.923
913.043
911.053
908.985
906.865
904.714
902.55
900.385
898.227
896.083
893.961
344.055
406.825
530.811
648.211
740.95
813.437
857.685
885.604
902.127
911.481
916.433
918.695
919.328
918.894
917.76
916.147
914.2
912
909.627
907.134
904.565
901.953
899.327
896.709
894.117
891.564
889.06
886.611
884.221
881.896
341.012
402.772
527.103
647.293
743.764
815.368
860.536
888.581
904.898
913.754
918.034
919.532
919.321
918.019
916.014
913.551
910.798
907.824
904.741
901.599
898.441
895.299
892.198
889.159
886.195
883.316
880.529
877.837
875.243
872.752
338.076
398.682
523.111
645.206
745.575
817.391
863.696
892.059
908.291
916.786
920.523
921.399
920.463
918.415
915.689
912.512
909.054
905.438
901.759
898.069
894.413
890.824
887.325
883.932
880.657
877.507
874.485
871.593
868.831
866.204
335.158
394.461
518.941
646.318
746.038
822.202
866.944
895.983
912.228
920.493
923.812
924.187
922.655
919.971
916.592
912.807
908.794
904.65
900.474
896.32
892.243
888.278
884.447
880.761
877.229
873.855
870.641
867.585
864.686
861.947
332.168
390.005
514.123
644.362
744.734
824.929
871.94
900.232
916.635
924.798
927.82
927.794
925.778
922.577
918.663
914.337
909.803
905.197
900.615
896.099
891.692
887.426
883.325
879.4
875.657
872.099
868.726
865.537
862.526
859.696
328.999
385.207
508.758
641.168
745.892
827.604
877.272
905.615
921.46
929.638
932.469
932.125
929.73
926.11
921.758
916.997
912.034
907.026
902.065
897.219
892.525
888.014
883.7
879.59
875.686
871.988
868.494
865.201
862.102
859.2
325.566
380.082
503.248
644.079
753.268
832.624
882.382
911.356
927.014
934.901
937.626
937.062
934.393
930.447
925.744
920.627
915.305
909.967
904.708
899.595
894.664
889.944
885.447
881.181
877.145
873.337
869.753
866.385
863.227
860.276
322.054
374.935
496.848
640.015
753.168
835.216
886.902
916.723
933.028
940.808
943.335
942.602
939.738
935.528
930.543
925.112
919.471
913.861
908.359
903.027
897.902
893.012
888.364
883.969
879.82
875.918
872.253
868.819
865.604
862.608
318.623
369.785
490.053
639.675
750.369
836.021
890.721
921.996
938.94
946.956
949.444
948.571
945.529
941.114
935.869
930.191
924.375
918.574
912.882
907.375
902.09
897.057
892.284
887.779
883.536
879.553
875.82
872.329
869.068
866.033
315.277
364.634
482.563
634.301
750.332
835.306
893.922
927.131
944.955
953.377
955.987
955.047
951.808
947.203
941.807
936.002
930.023
924.052
918.194
912.535
907.113
901.957
897.074
892.473
888.147
884.094
880.302
876.763
873.462
870.396
312.012
359.494
474.653
627.645
744.429
837.118
896.874
932.169
951.084
960.064
962.91
962.048
958.764
954.044
948.485
942.502
936.349
930.213
924.203
918.409
912.867
907.605
902.623
897.934
893.531
889.415
885.569
881.988
878.654
875.56
308.824
354.374
466.382
620.435
743.192
834.728
898.867
937.001
957.287
966.971
970.151
969.449
966.183
961.41
955.752
949.648
943.36
937.088
930.94
925.009
919.332
913.948
908.86
904.081
899.601
895.424
891.528
887.913
884.554
881.447
305.713
349.283
457.777
612.242
742.244
835.236
900.1
941.623
963.544
974.07
977.676
977.205
974.004
969.218
963.497
957.3
950.903
944.516
938.253
932.212
926.428
920.948
915.769
910.91
906.355
902.112
898.153
894.485
891.073
887.958
302.672
344.237
448.889
603.015
734.622
837.054
900.144
946.056
969.877
981.381
985.5
985.318
982.225
977.459
971.7
965.432
958.943
952.458
946.091
939.952
934.074
928.511
923.255
918.335
913.723
909.455
905.472
901.793
898.374
895.211
299.7
339.251
439.776
593.3
730.657
836.732
902.909
951.136
976.516
988.988
993.675
993.82
990.88
986.168
980.394
974.074
967.504
960.928
954.462
948.228
942.258
936.616
931.289
926.335
921.691
917.387
913.37
909.643
906.178
902.968
296.8
334.341
430.465
582.665
728.45
834.367
907.109
956.572
983.4
996.902
1002.23
1002.74
1000
995.379
989.616
983.26
976.621
969.959
963.394
957.061
950.987
945.266
939.843
934.902
930.251
925.909
921.85
918.076
914.565
911.31
293.979
329.527
421.013
570.839
726.99
829.847
905.992
960.849
990.137
1005.03
1011.17
1012.11
1009.63
1005.13
999.401
993.027
986.334
979.598
972.938
966.504
960.305
954.669
949.309
944.279
939.548
935.127
930.997
927.154
923.58
920.267
291.241
324.829
411.503
557.713
718.146
826.521
907.677
965.472
997.107
1013.51
1020.55
1021.99
1019.81
1015.46
1009.79
1003.41
996.685
989.904
983.19
976.723
970.479
964.787
959.364
954.255
949.447
944.951
940.748
936.837
933.2
929.826
288.595
320.265
402.037
543.811
707.912
826.561
910.923
970.032
1004.25
1022.35
1030.41
1032.43
1030.6
1026.43
1020.82
1014.45
1007.67
1000.84
994.079
987.664
981.488
975.658
970.12
964.909
960.008
955.426
951.144
947.16
943.454
940.017
286.046
315.855
392.693
529.231
695.815
827.29
907.338
972.249
1010.95
1031.32
1040.68
1043.41
1042.02
1038.09
1032.57
1026.19
1019.34
1012.38
1005.42
999.083
992.921
987.052
981.459
976.18
971.208
966.554
962.201
958.147
954.375
950.875
283.6
311.613
383.549
514.131
681.595
820.605
906.374
975.416
1018.06
1040.66
1051.42
1054.98
1054.15
1050.5
1045.12
1038.79
1031.93
1024.93
1017.91
1011.51
1005.27
999.322
993.642
988.273
983.214
978.474
974.039
969.907
966.06
962.49
281.263
307.555
374.676
498.709
665.864
812.766
906.949
978.212
1025.04
1050.2
1062.58
1067.15
1066.99
1063.69
1058.5
1052.26
1045.4
1038.37
1031.28
1024.82
1018.51
1012.46
1006.69
1001.22
996.071
991.239
986.715
982.498
978.571
974.924
279.038
303.69
366.137
483.128
648.594
803.647
908.157
977.071
1030.84
1059.62
1074.12
1079.96
1080.56
1077.72
1072.78
1066.65
1059.82
1052.76
1045.62
1039.09
1032.69
1026.56
1020.68
1015.12
1009.86
1004.93
1000.31
996.001
991.987
988.258
276.928
300.03
357.99
467.564
629.62
791.853
900.985
977.724
1036.82
1069.37
1086.25
1093.55
1095
1092.7
1088.06
1082.08
1075.3
1068.22
1061.02
1054.42
1047.94
1041.7
1035.72
1030.05
1024.68
1019.64
1014.92
1010.51
1006.4
1002.59
274.935
296.587
350.284
452.227
609.048
776.951
892.547
978.45
1041.67
1079.02
1098.86
1107.95
1110.39
1108.74
1104.46
1098.67
1091.95
1084.86
1077.59
1070.93
1064.36
1058.01
1051.92
1046.13
1040.65
1035.49
1030.66
1026.14
1021.93
1018.02
273.059
293.363
343.058
437.349
587.426
760.038
888.624
978.529
1044.78
1088.39
1111.84
1123.1
1126.78
1125.94
1122.1
1116.53
1109.89
1102.81
1095.48
1088.75
1082.08
1075.63
1069.41
1063.5
1057.89
1052.61
1047.65
1043.02
1038.69
1034.67
271.308
290.356
336.336
423.11
565.054
740.057
887.013
977.411
1049.75
1098.76
1125.61
1139.12
1144.25
1144.38
1141.06
1135.77
1129.27
1122.2
1114.82
1108.02
1101.26
1094.69
1088.34
1082.29
1076.54
1071.13
1066.04
1061.27
1056.83
1052.69
269.688
287.56
330.131
409.67
542.367
716.335
874.499
978.189
1057.34
1110.14
1140.2
1156.12
1162.91
1164.08
1161.44
1156.54
1150.22
1143.2
1135.78
1128.93
1122.06
1115.37
1108.88
1102.68
1096.78
1091.22
1085.98
1081.08
1076.5
1072.23
268.218
284.966
324.443
397.15
519.903
690.11
858.007
980.224
1058.43
1119.12
1154.34
1173.62
1182.62
1185.13
1183.38
1178.99
1172.93
1166.01
1158.56
1151.66
1144.69
1137.87
1131.23
1124.87
1118.81
1113.08
1107.68
1102.62
1097.88
1093.47
266.87
282.583
319.259
385.633
498.099
661.82
836.377
971.452
1064.65
1128.67
1168.98
1192.02
1203.59
1207.72
1207.1
1203.34
1197.62
1190.83
1183.39
1176.45
1169.38
1162.42
1155.62
1149.09
1142.84
1136.93
1131.34
1126.11
1121.21
1116.64
265.587
280.439
314.558
375.165
477.369
632.247
810.989
958.699
1063.13
1136.76
1184.04
1211.55
1226.07
1232.13
1232.79
1229.82
1224.54
1217.96
1210.55
1203.59
1196.42
1189.31
1182.33
1175.6
1169.15
1163.03
1157.25
1151.82
1146.73
1141.98
264.401
278.577
310.304
365.761
458.044
602.049
781.542
941.576
1056.69
1141.68
1198.69
1231.88
1250.04
1258.5
1260.64
1258.68
1254
1247.71
1240.39
1233.43
1226.14
1218.87
1211.68
1204.73
1198.05
1191.69
1185.68
1180.02
1174.72
1169.77
263.286
276.953
306.445
357.404
440.393
572.063
747.91
920.287
1040.97
1136.97
1210.1
1251.68
1274.94
1286.62
1290.74
1290.16
1286.31
1280.54
1273.51
1266.43
1258.95
1251.45
1244.02
1236.81
1229.86
1223.24
1216.97
1211.06
1205.52
1200.34
262.209
275.528
303.027
350.057
424.604
543.296
711.261
893.396
1031.99
1137.47
1222.03
1272.04
1301.1
1316.62
1323.26
1324.31
1321.51
1316.4
1309.77
1302.6
1294.95
1287.25
1279.58
1272.11
1264.89
1258
1251.45
1245.29
1239.49
1234.06
261.137
274.09
300.107
343.64
410.738
516.547
672.758
859.892
1026.36
1139.31
1230.26
1291.74
1328.23
1348.6
1358.41
1361.4
1359.9
1355.55
1349.34
1342.24
1334.52
1326.69
1318.82
1311.11
1303.63
1296.46
1289.63
1283.18
1277.11
1271.41
260.075
272.786
297.898
338.035
398.768
492.437
633.962
817.756
1000.06
1139.3
1229.93
1308.76
1355.52
1382.37
1396.33
1401.93
1402.15
1398.74
1393.02
1386.08
1378.34
1370.44
1362.41
1354.49
1346.74
1339.3
1332.17
1325.42
1319.04
1313.05
258.992
271.534
296.08
333.202
388.595
471.376
596.999
770.981
962.489
1122.42
1229.26
1323.9
1383.05
1418.12
1437.42
1446.46
1448.73
1446.59
1441.52
1434.79
1426.97
1419.19
1411.1
1403.02
1395.04
1387.3
1379.86
1372.78
1366.07
1359.75
257.865
270.277
294.654
329.244
380.043
453.465
563.362
722.439
915.968
1096.75
1224.85
1328.73
1406.77
1454.06
1481.12
1495.09
1500.37
1500.17
1496.08
1489.73
1481.89
1474.34
1466.24
1457.99
1449.74
1441.68
1433.86
1426.39
1419.28
1412.57
256.591
268.834
292.79
326.232
372.42
437.6
532.159
672.067
858.292
1057.26
1224.43
1347.06
1435.66
1495.06
1531.37
1551.86
1561.51
1564.03
1561.67
1556.24
1548.77
1541.39
1533.19
1524.68
1516.04
1507.51
1499.2
1491.2
1483.57
1476.33
255.375
267.473
291.141
324.336
366.775
425.954
508.397
629.78
800.758
1004.31
1194.49
1342.03
1451.26
1530.03
1579.18
1608.24
1623.61
1629.78
1629.84
1625.72
1618.85
1611.81
1603.59
1594.85
1585.82
1576.81
1567.96
1559.39
1551.18
1543.37
254.211
266.167
289.514
322.072
362.537
417.375
490.608
595.917
748.316
946.225
1152.7
1323.67
1446.54
1555.13
1622.52
1663.21
1686.19
1697.32
1700.4
1698.17
1692.27
1685.74
1677.57
1668.6
1659.16
1649.63
1640.19
1630.99
1622.14
1613.7
253.099
264.923
287.988
320.195
359.795
410.975
477.411
569.621
703.346
887.935
1102.18
1296.76
1440.93
1574.4
1662.18
1716.64
1748.95
1766.34
1773.54
1774.22
1770.23
1763.79
1755.43
1746.11
1736.17
1726.05
1715.96
1706.08
1696.54
1687.41
252.036
263.736
286.506
318.483
358.291
406.273
467.656
549.607
666.495
833.283
1044.82
1260.83
1429.16
1573.45
1690.76
1764.41
1809.46
1835.08
1847.49
1851.28
1849.24
1843.69
1835.65
1826.34
1816.15
1805.61
1794.98
1784.48
1774.28
1764.47
251.021
262.642
285.22
316.702
356.103
402.705
460.399
534.553
637.348
785.335
985.375
1213.9
1422.21
1579.26
1716.85
1809.33
1868.62
1904.03
1922.81
1930.52
1930.92
1926.56
1919.02
1910
1899.76
1888.93
1877.82
1866.75
1855.88
1845.38
250.045
261.663
284.394
315.909
354.184
400.186
454.926
523.271
614.818
745.29
928.203
1155.86
1385.76
1570.43
1730.68
1848.18
1925.4
1973
1999.73
2012.38
2015.51
2012.46
2005.15
1997.2
1987.35
1976.48
1965.03
1953.42
1941.89
1930.65
249.104
260.754
283.6
315.363
353.548
398.392
450.764
514.791
597.645
713.073
877.126
1095.16
1339.75
1561.91
1729.47
1873.35
1975.25
2039.71
2077.47
2097.12
2104.44
2103.95
2097.85
2090.67
2080.97
2069.84
2057.85
2045.52
2033.15
2021.02
248.195
259.851
282.796
314.03
351.92
396.238
447.415
508.337
584.637
687.765
833.545
1035.35
1281.98
1530.24
1738.26
1897.67
2022.61
2105.1
2155.8
2184.06
2196.82
2199.53
2195.16
2189.08
2179.7
2168.4
2155.88
2142.8
2129.52
2116.4
247.301
258.954
281.649
312.696
350.362
394.286
444.574
503.342
574.799
668.23
797.815
980.493
1218.36
1479.72
1713.07
1889.32
2055.63
2163.76
2232.27
2272.23
2292.35
2299.32
2297.39
2292.84
2284.01
2272.63
2259.58
2245.69
2231.42
2217.2
246.387
257.964
280.524
311.404
348.875
392.496
442.153
499.397
567.322
653.311
769.375
933.07
1155.85
1421.93
1681.12
1887.91
2084.38
2219.29
2307.96
2361.92
2391.22
2403.82
2405.13
2402.59
2394.53
2383.13
2369.52
2354.73
2339.35
2323.89
245.507
257.008
279.436
310.154
347.446
390.821
440.019
496.186
561.571
641.964
747.163
893.556
1097.69
1359.6
1641.25
1881.75
2105.21
2269.79
2382.02
2452.86
2493.63
2513.58
2519.01
2519.04
2511.87
2500.44
2486.19
2470.38
2453.72
2436.85
244.662
256.089
278.385
308.944
346.066
389.23
438.083
493.486
557.059
633.321
730.044
861.562
1045.8
1294.18
1587.25
1873.82
2113.07
2308.42
2451.15
2543.31
2598.76
2628.73
2640.97
2642.77
2636.26
2624.72
2609.74
2592.81
2574.75
2556.32
243.852
255.205
277.372
307.773
344.731
387.707
436.287
491.137
553.426
626.684
716.966
836.321
1001.77
1230.94
1520.04
1825.59
2081.54
2310.19
2503.68
2626.96
2702.17
2744.6
2764.53
2770.24
2765.73
2754.88
2739.66
2721.85
2702.48
2682.48
243.076
254.357
276.395
306.641
343.439
386.24
434.594
489.032
550.407
621.504
706.991
816.741
965.809
1174.25
1451.5
1773.33
2081.11
2325.19
2555.49
2708.97
2806.15
2863.29
2892.55
2903.55
2901.96
2892.37
2877.18
2858.61
2837.89
2816.2
242.333
253.544
275.455
305.547
342.189
384.824
432.98
487.098
547.815
617.368
699.34
801.7
937.128
1125.38
1383.68
1705.85
2042.67
2327.52
2590
2783.19
2908.41
2984.22
3025.2
3043.04
3045.17
3037.63
3022.96
3003.82
2981.77
2958.25
241.621
252.764
274.55
304.492
340.98
383.456
431.432
485.29
545.519
613.97
693.398
790.198
914.71
1084.92
1321.39
1632.97
1989.37
2327.93
2599.84
2846.03
3007.11
3106.96
3162.89
3189.16
3195.25
3191.4
3178.08
3158.74
3135.42
3109.93
240.941
252.017
273.68
303.475
339.812
382.133
429.94
483.576
543.43
611.085
688.688
781.382
897.414
1052.38
1266.98
1559.71
1919.37
2290.35
2608.82
2902.48
3102.76
3231.65
3306.63
3343.94
3355.03
3356.5
3345.15
3325.73
3300.93
3273.13
240.29
251.303
272.844
302.495
338.683
380.853
428.5
481.936
541.489
608.554
684.851
774.553
884.161
1026.78
1221.43
1491.59
1843.75
2239.96
2597.7
2935.33
3189.23
3355.71
3456.03
3509.19
3529.08
3535.87
3526.45
3506.69
3479.97
3449.31
239.668
250.62
272.041
301.551
337.594
379.615
427.108
480.359
539.657
606.271
681.622
769.164
874.004
1006.93
1184.39
1430.84
1764.89
2173.25
2592.43
2944.22
3259.78
3474.12
3607.83
3682.09
3713.95
3728.11
3721.69
3701.89
3673.13
3639.17
239.074
249.966
271.271
300.642
336.543
378.42
425.762
478.839
537.911
604.162
678.815
764.802
866.165
991.707
1155.1
1379.34
1688.91
2090.29
2541.08
2967.74
3321.42
3588.26
3762.99
3864.03
3911.37
3935.11
3932.8
3913.18
3882.04
3844.16
238.506
249.343
270.532
299.769
335.529
377.266
424.462
477.371
536.239
602.183
676.303
761.159
860.015
980.056
1132.39
1337.4
1620.96
2003.23
2464.01
2932.96
3341.23
3681.98
3914.59
4053.13
4122.01
4158.61
4161.64
4142.43
4108.5
4065.88
237.962
248.747
269.823
298.929
334.553
376.152
423.207
475.955
534.63
600.307
674
758.019
855.071
971.084
1114.98
1304.17
1563.17
1920.01
2376.45
2876.01
3317.66
3736.25
4050.62
4243.9
4345.07
4399.46
4409.69
4391.4
4354.33
4306.14
237.443
248.179
269.143
298.123
333.614
375.08
421.996
474.589
533.083
598.516
671.854
755.231
850.974
964.071
1101.68
1278.37
1515.85
1844.92
2284.62
2805.3