/*--------------------------------*- C++ -*----------------------------------*\
| =========                 |                                                 |
| \\      /  F ield         | OpenFOAM: The Open Source CFD Toolbox           |
|  \\    /   O peration     | Version:  2312                                  |
|   \\  /    A nd           | Website:  www.openfoam.com                      |
|    \\/     M anipulation  |                                                 |
\*---------------------------------------------------------------------------*/
FoamFile
{
    version     2.0;
    format      ascii;
    arch        "LSB;label=32;scalar=64";
    class       volScalarField;
    location    "20000";
    object      p;
}
// * * * * * * * * * * * * * * * * * * * * * * * * * * * * * * * * * * * * * //

dimensions      [0 2 -2 0 0 0 0];

internalField   nonuniform List<scalar> 
29400
(
53.4516
53.0757
51.8623
50.4678
48.7725
46.9556
45.0882
43.2397
41.4585
39.7739
38.202
36.7495
35.4164
34.1987
33.0901
32.0829
31.1692
30.341
29.5904
28.9104
28.2941
27.7354
27.2288
26.7691
26.3518
25.9727
25.6282
25.3149
25.0298
24.7706
53.4489
53.0756
51.8641
50.4701
48.775
46.9583
45.0912
43.2429
41.462
39.7777
38.2062
36.754
35.4212
34.2037
33.0954
32.0884
31.1749
30.3468
29.5964
28.9164
28.3002
27.7416
27.235
26.7754
26.3581
25.979
25.6345
25.3213
25.0363
24.7769
53.4448
53.0748
51.8653
50.4719
48.777
46.9605
45.0937
43.2458
41.4652
39.7814
38.2102
36.7584
35.426
34.2089
33.1009
32.0942
31.181
30.3531
29.6029
28.9231
28.307
27.7485
27.242
26.7825
26.3652
25.9863
25.6418
25.3286
25.0436
24.784
53.4369
53.0708
51.8635
50.4706
48.7759
46.9596
45.0931
43.2454
41.4653
39.7818
38.2111
36.7597
35.4277
34.211
33.1032
32.0969
31.1839
30.3563
29.6063
28.9267
28.3108
27.7524
27.246
26.7865
26.3694
25.9904
25.646
25.3328
25.0479
24.7883
53.4202
53.0607
51.8571
50.4651
48.7705
46.9545
45.0882
43.2409
41.4613
39.7783
38.2081
36.7573
35.4259
34.2097
33.1025
32.0966
31.184
30.3567
29.607
28.9277
28.312
27.7539
27.2476
26.7883
26.3713
25.9925
25.6482
25.3351
25.0503
24.791
53.3906
53.0439
51.8456
50.4547
48.7603
46.9445
45.0785
43.2317
41.4525
39.7702
38.2007
36.7505
35.4197
34.2042
33.0976
32.0922
31.1802
30.3534
29.6041
28.9252
28.3099
27.752
27.246
26.7869
26.3702
25.9916
25.6475
25.3347
25.05
24.791
53.3525
53.0222
51.8291
50.439
48.7447
46.929
45.0632
43.2167
41.4381
39.7563
38.1874
36.7379
35.4078
34.1929
33.087
32.0822
31.1708
30.3445
29.5958
28.9173
28.3024
27.745
27.2394
26.7807
26.3643
25.986
25.6422
25.3297
25.0453
24.7867
53.3165
52.997
51.8071
50.4177
48.7234
46.9078
45.0421
43.1959
41.4177
39.7365
38.1683
36.7196
35.3902
34.176
33.0707
32.0667
31.1558
30.3302
29.582
28.904
28.2896
27.7326
27.2274
26.769
26.3529
25.9749
25.6315
25.3192
25.0351
24.7767
53.2814
52.9664
51.7793
50.3904
48.696
46.8805
45.015
43.1692
41.3915
39.7111
38.1437
36.6958
35.3673
34.154
33.0495
32.0463
31.1362
30.3112
29.5636
28.8863
28.2724
27.7159
27.2112
26.7533
26.3375
25.9599
25.6168
25.3048
25.021
24.7629
53.2404
52.929
51.7448
50.3564
48.6621
46.8466
44.9812
43.1359
41.359
39.6794
38.113
36.6662
35.3387
34.1265
33.0231
32.0208
31.1117
30.2876
29.5408
28.8642
28.251
27.6951
27.191
26.7336
26.3184
25.9413
25.5985
25.2869
25.0035
24.7456
53.1921
52.8843
51.703
50.3151
48.6207
46.8053
44.9402
43.0954
41.3193
39.6408
38.0756
36.63
35.3039
34.0929
32.9907
31.9897
31.0816
30.2585
29.5127
28.837
28.2246
27.6695
27.166
26.7093
26.2946
25.918
25.5757
25.2646
24.9815
24.7239
53.1359
52.8314
51.6531
50.2656
48.5712
46.7558
44.891
43.047
41.2719
39.5946
38.0308
36.5867
35.2621
34.0527
32.952
31.9523
31.0455
30.2237
29.479
28.8043
28.1929
27.6386
27.136
26.6799
26.2659
25.8899
25.5482
25.2376
24.955
24.6978
53.0709
52.7694
51.5942
50.2071
48.5126
46.6973
44.8329
42.9897
41.2158
39.54
37.9779
36.5356
35.2127
34.0051
32.9061
31.908
31.0028
30.1823
29.439
28.7655
28.1552
27.6019
27.1002
26.645
26.2318
25.8565
25.5154
25.2054
24.9233
24.6666
52.9959
52.6974
51.5253
50.1385
48.444
46.6288
44.7649
42.9226
41.1502
39.4761
37.916
36.4758
35.155
33.9494
32.8524
31.8562
30.9528
30.134
29.3922
28.7201
28.111
27.5589
27.0583
26.6041
26.1917
25.8172
25.4769
25.1675
24.886
24.6298
52.9099
52.6143
51.4454
50.0588
48.3642
46.5493
44.686
42.8449
41.0742
39.4022
37.8443
36.4065
35.0882
33.885
32.7903
31.7963
30.8948
30.0779
29.3378
28.6673
28.0598
27.509
27.0096
26.5564
26.1451
25.7715
25.432
25.1233
24.8425
24.5869
52.8118
52.5189
51.3533
49.967
48.2723
46.4576
44.5951
42.7555
40.9867
39.3171
37.762
36.3269
35.0114
33.811
32.7189
31.7274
30.8283
30.0135
29.2754
28.6067
28.0008
27.4515
26.9535
26.5016
26.0914
25.7188
25.3802
25.0724
24.7923
24.5374
52.7004
52.4101
51.2478
49.8616
48.167
46.3526
44.491
42.6532
40.8868
39.22
37.6679
36.2361
34.9238
33.7265
32.6373
31.6486
30.7521
29.9398
29.2039
28.5372
27.9331
27.3855
26.8889
26.4384
26.0294
25.6579
25.3204
25.0135
24.7342
24.4801
52.5745
52.2866
51.1277
49.7415
48.0469
46.233
44.3726
42.5368
40.7732
39.1097
37.5612
36.133
34.8243
33.6304
32.5446
31.5589
30.6652
29.8555
29.1219
28.4574
27.8553
27.3095
26.8145
26.3654
25.9578
25.5875
25.2511
24.9451
24.6668
24.4135
52.4327
52.1469
50.9914
49.6053
47.9107
46.0975
44.2386
42.4053
40.6449
38.985
37.4405
36.0164
34.7116
33.5216
32.4394
31.457
30.5665
29.7595
29.0286
28.3664
27.7664
27.2226
26.7294
26.2819
25.8757
25.5068
25.1715
24.8667
24.5893
24.3369
52.2736
51.9898
50.8376
49.4514
47.757
45.9447
44.0876
42.2571
40.5004
38.8448
37.3047
35.8852
34.5849
33.3991
32.3209
31.3423
30.4551
29.6514
28.9233
28.2637
27.6661
27.1244
26.6332
26.1875
25.7829
25.4155
25.0815
24.7778
24.5016
24.2501
52.0956
51.8134
50.6646
49.2784
47.5843
45.773
43.9181
42.0911
40.3386
38.6879
37.1529
35.7384
34.4432
33.2622
32.1884
31.214
30.3306
29.5304
28.8055
28.1488
27.5538
27.0145
26.5254
26.0817
25.6789
25.313
24.9805
24.6781
24.4031
24.1527
51.8971
51.6163
50.4708
49.0844
47.3908
45.581
43.7288
41.9058
40.1583
38.513
36.9838
35.5751
34.2855
33.1098
32.041
31.0712
30.1921
29.3956
28.6743
28.0208
27.4287
26.892
26.4053
25.9637
25.5628
25.1987
24.8678
24.5669
24.2931
24.0439
51.6763
51.3967
50.2544
48.8679
47.175
45.367
43.5182
41.6998
39.958
38.319
36.7963
35.3941
34.1107
32.941
31.8777
30.9129
30.0385
29.2463
28.5288
27.8789
27.29
26.7561
26.272
25.8328
25.4341
25.0718
24.7427
24.4433
24.171
23.9231
51.4315
51.1526
50.0135
48.6269
46.935
45.1295
43.2846
41.4717
39.7364
38.1046
36.5892
35.1943
33.9179
32.7546
31.6975
30.7383
29.869
29.0815
28.3683
27.7222
27.1367
26.6061
26.1248
25.6882
25.2917
24.9316
24.6043
24.3067
24.0359
23.7895
51.1606
50.8821
49.7462
48.3596
46.6691
44.8666
43.0264
41.22
39.4922
37.8684
36.3613
34.9745
33.7058
32.5498
31.4993
30.5464
29.6827
28.9004
28.1918
27.5499
26.9682
26.441
25.9628
25.529
25.1351
24.7773
24.4521
24.1563
23.8872
23.6423
50.8616
50.5833
49.4505
48.0641
46.3755
44.5766
42.7422
40.9432
39.2239
37.6093
36.1114
34.7335
33.4733
32.3253
31.2823
30.3361
29.4786
28.7019
27.9983
27.361
26.7835
26.2601
25.7853
25.3545
24.9633
24.608
24.2851
23.9914
23.7242
23.4809
50.5324
50.254
49.1243
47.7382
46.0521
44.2578
42.4301
40.6397
38.9302
37.3258
35.8381
34.4702
33.2195
32.0803
31.0453
30.1066
29.2558
28.4851
27.7871
27.1548
26.5818
26.0624
25.5913
25.1638
24.7756
24.423
24.1025
23.8111
23.5459
23.3045
50.1708
49.892
48.7654
47.38
45.6971
43.9084
42.0886
40.3081
38.6096
37.0167
35.5405
34.1837
32.9434
31.814
30.7879
29.8573
29.0139
28.2499
27.5578
26.9309
26.3628
25.8478
25.3806
24.9567
24.5718
24.2221
23.9043
23.6152
23.3522
23.1128
49.7746
49.495
48.3717
46.9874
45.3086
43.5266
41.7161
39.9469
38.2608
36.6808
35.2174
33.873
32.6444
31.5257
30.5095
29.5878
28.7525
27.9958
27.3103
26.6894
26.1266
25.6164
25.1536
24.7336
24.3522
24.0057
23.6908
23.4043
23.1436
22.9064
49.3414
49.0608
47.9409
46.5583
44.8846
43.1107
41.311
39.5547
37.8826
36.3171
34.868
33.5371
32.3212
31.2142
30.2087
29.2968
28.4703
27.7216
27.0433
26.4288
25.8719
25.3669
24.9089
24.4932
24.1157
23.7727
23.461
23.1774
22.9194
22.6845
48.869
48.5871
47.4709
46.0907
44.4232
42.6589
40.8717
39.13
37.4738
35.9242
34.4908
33.1746
31.9725
30.8782
29.8843
28.9828
28.1658
27.4257
26.7552
26.1476
25.597
25.0977
24.6448
24.2338
23.8605
23.5213
23.213
22.9325
22.6773
22.445
48.3549
48.0715
46.9594
45.5825
43.9227
42.1695
40.3967
38.6715
37.0329
35.5009
34.0845
32.7844
31.5971
30.5165
29.535
28.6448
27.838
27.1071
26.4449
25.8449
25.301
24.8078
24.3604
23.9543
23.5855
23.2504
22.9458
22.6687
22.4165
22.1869
47.7968
47.5119
46.4044
45.0317
43.3812
41.6411
39.8846
38.178
36.5587
35.046
33.6481
32.3654
31.1942
30.1282
29.1601
28.282
27.4862
26.7651
26.1117
25.5197
24.983
24.4964
24.0549
23.6541
23.2901
22.9593
22.6586
22.3851
22.1361
21.9096
47.1926
46.906
45.8038
44.4366
42.797
41.0721
39.3342
37.6483
36.0503
34.5586
33.1807
31.9167
30.7627
29.7125
28.7587
27.8935
27.1093
26.3987
25.7549
25.1714
24.6424
24.1627
23.7274
23.3323
22.9734
22.6473
22.3508
22.0811
21.8356
21.6121
46.5399
46.2518
45.1557
43.7954
42.1687
40.4612
38.7443
37.0812
35.5065
34.0376
32.6813
31.4374
30.3019
29.2685
28.33
27.4785
26.7067
26.0073
25.3735
24.7991
24.2783
23.806
23.3774
22.9883
22.6349
22.3137
22.0216
21.756
21.5142
21.2941
45.8369
45.5473
44.4583
43.1064
41.4949
39.8074
38.1138
36.4759
34.9266
33.4824
32.1493
30.9269
29.8111
28.7956
27.8732
27.0364
26.2778
25.5902
24.9671
24.4023
23.8902
23.4257
23.0042
22.6215
22.2738
21.9579
21.6706
21.4092
21.1713
20.9548
45.0816
44.7907
43.71
42.3684
40.7745
39.1095
37.4419
35.8316
34.3099
32.8921
31.5839
30.3845
29.2896
28.2931
27.3879
26.5666
25.8219
25.1469
24.5351
23.9804
23.4775
23.0213
22.6072
22.2313
21.8898
21.5794
21.2971
21.0403
20.8065
20.5937
44.2725
43.9805
42.9095
41.5803
40.0067
38.367
36.7281
35.1478
33.6558
32.2664
30.9847
29.8096
28.7369
27.7605
26.8734
26.0684
25.3385
24.6767
24.0768
23.5329
23.0397
22.5922
22.1861
21.8173
21.4822
21.1777
20.9007
20.6487
20.4193
20.2105
43.4082
43.1155
42.0558
40.7413
39.1907
37.5793
35.9718
34.4241
32.9639
31.6048
30.3512
29.2019
28.1526
27.1974
26.3294
25.5417
24.8272
24.1794
23.5921
23.0595
22.5765
22.1382
21.7404
21.3791
21.0509
20.7525
20.4811
20.2342
20.0094
19.8048
42.4878
42.1949
41.1483
39.8508
38.3264
36.7461
35.173
33.6602
32.2341
30.9071
29.6832
28.5611
27.5365
26.6036
25.7557
24.986
24.2878
23.6547
23.0806
22.5599
22.0876
21.659
21.2699
20.9166
20.5955
20.3036
20.0381
19.7965
19.5766
19.3764
41.5106
41.2182
40.1866
38.9089
37.4136
35.8676
34.3316
32.8564
31.4664
30.1734
28.9808
27.8873
26.8886
25.979
25.1522
24.4015
23.7203
23.1025
22.5422
22.034
21.5729
21.1545
20.7746
20.4295
20.116
19.8309
19.5716
19.3356
19.1208
18.9253
40.4766
40.1853
39.1708
37.9157
36.4527
34.9441
33.4481
32.0128
30.6611
29.4039
28.2442
27.1806
26.209
25.3238
24.519
23.7881
23.1247
22.5229
21.9771
21.4819
21.0326
20.6248
20.2545
19.9181
19.6124
19.3345
19.0817
18.8516
18.6421
18.4514
39.3861
39.0967
38.1016
36.8719
35.4445
33.9764
32.523
31.13
29.8187
28.599
27.4737
26.4413
25.498
24.6383
23.8564
23.1461
22.5013
21.9163
21.3855
20.9039
20.4668
20.0701
19.7098
19.3826
19.0851
18.8146
18.5685
18.3446
18.1407
17.9551
38.24
37.9535
36.98
35.7787
34.3901
32.9654
31.5575
30.2091
28.9401
27.7595
26.67
25.6702
24.7562
23.923
23.1649
22.4761
21.8506
21.2829
20.7678
20.3004
19.8761
19.4909
19.1411
18.8233
18.5344
18.2717
18.0327
17.8151
17.6171
17.4368
37.0399
36.757
35.8077
34.6377
33.291
31.9128
30.5527
29.2511
28.0262
26.8864
25.8342
24.8681
23.9845
23.1788
22.4454
21.7788
21.1734
20.6237
20.1249
19.6721
19.2611
18.888
18.549
18.241
17.961
17.7064
17.4748
17.2639
17.0719
16.8972
35.7878
35.5096
34.5867
33.4511
32.1495
30.8203
29.5105
28.2577
27.0786
25.9811
24.9673
24.0361
23.1841
22.4067
21.6989
21.0552
20.4705
19.9396
19.4576
19.02
18.6228
18.262
17.9343
17.6365
17.3658
17.1196
16.8956
16.6916
16.5059
16.337
34.4865
34.2139
33.32
32.2216
30.9678
29.6903
28.4329
27.2307
26.099
25.045
24.071
23.1758
22.3562
21.6081
20.9266
20.3067
19.7433
19.2316
18.7671
18.3452
17.9622
17.6143
17.2983
17.011
16.7499
16.5124
16.2963
16.0995
15.9203
15.7573
33.1395
32.8735
32.0108
30.9523
29.749
28.5254
27.3223
26.1723
25.0894
24.0803
23.1472
22.2888
21.5026
20.7845
20.1301
19.5346
18.9933
18.5015
18.0548
17.6492
17.2808
16.9462
16.6422
16.3659
16.1146
15.8861
15.6781
15.4888
15.3164
15.1596
31.7508
31.4924
30.6631
29.647
28.4965
27.3287
26.1816
25.0853
24.0524
23.0893
22.1979
21.3774
20.6253
19.9381
19.3115
18.741
18.2223
17.7508
17.3226
16.9336
16.5803
16.2594
15.9677
15.7026
15.4616
15.2423
15.0428
14.8611
14.6956
14.5452
30.3252
30.0753
29.2814
28.3099
27.2143
26.1039
25.0141
23.9725
22.9907
22.0744
21.2257
20.4439
19.7267
19.071
18.4727
17.9279
17.4323
16.9818
16.5724
16.2005
15.8627
15.5557
15.2768
15.0232
14.7926
14.5828
14.3919
14.2181
14.0598
13.9159
28.8681
28.6276
27.8708
26.9459
25.9067
24.855
23.8235
22.8375
21.9075
21.0389
20.2335
19.491
18.8094
18.1857
17.6165
17.0978
16.6258
16.1966
15.8065
15.4521
15.1301
14.8374
14.5715
14.3297
14.1098
13.9098
13.7277
13.5619
13.411
13.2738
27.3855
27.1551
26.4369
25.5601
24.5786
23.5864
22.6137
21.6839
20.8064
19.986
19.2246
18.5219
17.8764
17.2853
16.7454
16.2533
15.8053
15.3979
15.0275
14.6908
14.3849
14.1069
13.8542
13.6244
13.4155
13.2254
13.0524
12.8948
12.7514
12.621
25.8838
25.6644
24.9859
24.1585
23.2353
22.303
21.3894
20.516
19.6912
18.9194
18.2023
17.5399
16.9309
16.3727
15.8627
15.3976
14.974
14.5885
14.2381
13.9195
13.6299
13.3668
13.1275
12.91
12.7122
12.5321
12.3683
12.2191
12.0833
11.9598
24.3702
24.1622
23.5245
22.7472
21.8827
21.0101
20.1555
19.3384
18.5663
17.8432
17.1707
16.5488
15.9765
15.4516
14.9717
14.5338
14.1348
13.7716
13.4413
13.1411
12.8681
12.6199
12.3943
12.1892
12.0025
11.8328
11.6782
11.5375
11.4093
11.2929
22.852
22.656
22.0595
21.3327
20.5268
19.7136
18.9173
18.156
17.4363
16.7617
16.1338
15.5525
15.0171
14.5256
14.076
13.6654
13.2912
12.9505
12.6406
12.3587
12.1024
11.8694
11.6575
11.4648
11.2895
11.13
10.9849
10.8526
10.7323
10.6229
21.3371
21.1535
20.5984
19.9222
19.1742
18.4194
17.6804
16.9741
16.3062
15.6797
15.0961
14.5553
14.0567
13.5987
13.1794
12.7963
12.4469
12.1287
11.8391
11.5757
11.3362
11.1184
10.9203
10.7401
10.5762
10.427
10.2912
10.1676
10.055
9.95268
19.8334
19.6625
19.1488
18.5228
17.8316
17.134
16.4511
15.7984
15.1813
14.6022
14.0623
13.5617
13.0997
12.6751
12.2859
11.9302
11.6056
11.3099
11.0407
10.7957
10.5729
10.3702
10.1859
10.0182
9.86564
9.72679
9.60038
9.48523
9.3804
9.28519
18.3491
18.191
17.7185
17.142
16.5063
15.8641
15.2355
14.6349
14.0672
13.5344
13.0376
12.5765
12.1507
11.759
11.3998
11.0712
10.7713
10.4979
10.2489
10.0222
9.816
9.62841
9.45775
9.30248
9.16119
9.03257
8.91547
8.80879
8.71167
8.62347
16.8925
16.7473
16.3152
15.7872
15.2051
14.6166
14.0403
13.4898
12.9697
12.4819
12.0269
11.6046
11.2143
10.855
10.5253
10.2236
9.94795
9.69658
9.46755
9.25902
9.06922
8.89652
8.73937
8.59636
8.46619
8.34769
8.23977
8.14145
8.05193
7.97066
15.4716
15.3392
14.9467
14.4658
13.9355
13.3985
12.8723
12.3697
11.8952
11.4505
11.036
10.6512
10.2955
9.96787
9.66705
9.39157
9.13981
8.91008
8.70068
8.50993
8.33627
8.17819
8.0343
7.90333
7.7841
7.67552
7.57662
7.4865
7.40445
7.32997
14.0943
13.9746
13.6205
13.185
12.7043
12.2165
11.7381
11.281
10.8498
10.4462
10.0703
9.72165
9.39932
9.10236
8.82959
8.57967
8.35116
8.14253
7.95227
7.77889
7.62096
7.47716
7.34622
7.227
7.11843
7.01954
6.92944
6.84732
6.77256
6.70469
12.7683
12.661
12.344
11.9518
11.5182
11.0773
10.6442
10.2302
9.83987
9.47508
9.13584
8.82146
8.53102
8.26348
8.01769
7.79243
7.58637
7.39816
7.22644
7.06988
6.92722
6.79725
6.67887
6.57103
6.4728
6.38329
6.30172
6.22736
6.15965
6.0982
11.5008
11.4056
11.1239
10.7727
10.3834
9.98687
9.59671
9.22336
8.87159
8.54321
8.23834
7.95627
7.69596
7.45633
7.23625
7.03453
6.84998
6.68134
6.52742
6.38703
6.25904
6.14239
6.03608
5.9392
5.85091
5.77043
5.69706
5.63016
5.56924
5.51394
10.2982
10.2145
9.96604
9.65321
9.30551
8.95079
8.60106
8.26609
7.95056
7.65628
7.38351
7.1316
6.89949
6.68608
6.49021
6.31075
6.14656
5.99652
5.85953
5.73453
5.62053
5.51657
5.42178
5.33536
5.25657
5.1847
5.11916
5.05937
5.00493
4.9555
9.16656
9.09375
8.87625
8.59747
8.28813
7.97344
7.662
7.36325
7.08173
6.81935
6.5765
6.35262
6.14673
5.95771
5.78443
5.62579
5.4807
5.34813
5.22708
5.11661
5.01581
4.92386
4.83997
4.76345
4.69363
4.62993
4.57178
4.51874
4.47043
4.42654
8.11269
8.05155
7.86205
7.61093
7.33415
7.05737
6.78282
6.51863
6.26918
6.0366
5.82162
5.62376
5.44214
5.27571
5.12336
4.98402
4.85667
4.74036
4.63419
4.53728
4.44885
4.36814
4.29447
4.22723
4.16584
4.10979
4.05859
4.01187
3.96932
3.93061
7.14465
7.09459
6.92844
6.70232
6.45215
6.20629
5.9649
5.73346
5.51512
5.31086
5.12197
4.94828
4.78909
4.64352
4.51052
4.38901
4.27806
4.17678
4.08436
4.00004
3.92307
3.85282
3.78866
3.73007
3.67653
3.6276
3.58288
3.54206
3.50487
3.47098
6.26363
6.22058
6.07418
5.87543
5.65284
5.43016
5.21249
5.00868
4.8193
4.64215
4.47842
4.32777
4.18953
4.0633
3.94813
3.84302
3.74712
3.65966
3.57992
3.50719
3.44081
3.3802
3.32482
3.27421
3.22793
3.1856
3.14687
3.11151
3.07929
3.04984
5.46149
5.42352
5.29562
5.12433
4.93127
4.7329
4.53793
4.35506
4.18542
4.03013
3.88973
3.76131
3.64299
3.535
3.43654
3.34659
3.26447
3.18965
3.12151
3.05941
3.00275
2.95099
2.90368
2.86041
2.82082
2.78458
2.7514
2.7211
2.69347
2.66811
4.7339
4.70064
4.59016
4.44301
4.27703
4.10688
3.93864
3.77647
3.62495
3.48752
3.36266
3.24884
3.14643
3.0552
2.97306
2.89787
2.82889
2.76593
2.70854
2.6562
2.60837
2.5646
2.52452
2.48784
2.45426
2.42351
2.39534
2.36962
2.34615
2.32448
4.07873
4.05025
3.95591
3.83032
3.68856
3.54352
3.40063
3.26302
3.13378
3.01378
2.90266
2.80201
2.71275
2.63285
2.56035
2.49457
2.43547
2.38253
2.33492
2.29193
2.25283
2.21689
2.18375
2.15329
2.12536
2.09976
2.07631
2.05489
2.0353
2.01708
3.49383
3.46979
3.39006
3.28379
3.16385
3.04126
2.92092
2.8047
2.69564
2.59481
2.50235
2.41805
2.34128
2.27101
2.20712
2.15014
2.09957
2.05432
2.01355
1.97652
1.94252
1.91121
1.88267
1.85681
1.83335
1.81202
1.79261
1.775
1.75893
1.74385
2.97598
2.95592
2.88921
2.80003
2.69958
2.59681
2.4962
2.39902
2.30775
2.22345
2.14633
2.07626
2.01282
1.95539
1.90333
1.85604
1.81295
1.77354
1.7374
1.70415
1.67365
1.64599
1.62104
1.59846
1.57793
1.55924
1.54224
1.52681
1.51259
1.49887
2.52135
2.50479
2.44953
2.37538
2.2919
2.20629
2.1228
2.04213
1.96615
1.896
1.83182
1.77344
1.72048
1.67243
1.62878
1.58905
1.5528
1.51965
1.48927
1.46139
1.43576
1.41221
1.39055
1.37062
1.3523
1.33545
1.31996
1.30577
1.29259
1.27985
2.12568
2.11214
2.06688
2.00597
1.93699
1.86577
1.79709
1.73062
1.66765
1.60951
1.55631
1.50788
1.46389
1.4239
1.38745
1.35413
1.32357
1.29548
1.26962
1.24579
1.22381
1.20355
1.18488
1.16765
1.15178
1.13717
1.12373
1.11139
1.09989
1.08879
1.78434
1.77337
1.73669
1.68711
1.63076
1.57207
1.5157
1.46091
1.40887
1.36086
1.3169
1.27683
1.24037
1.20714
1.17677
1.14892
1.1233
1.09968
1.07787
1.0577
1.03905
1.0218
1.00586
0.991119
0.977512
0.964947
0.95337
0.942735
0.932817
0.92322
1.49254
1.48372
1.45427
1.41423
1.36913
1.3214
1.27476
1.22952
1.18678
1.14737
1.11124
1.07826
1.04818
1.02071
0.99553
0.972371
0.950998
0.931228
0.912917
0.895939
0.880142
0.865538
0.852099
0.839551
0.827884
0.817149
0.807261
0.798168
0.789673
0.781433
1.24552
1.23852
1.21516
1.18318
1.14742
1.1087
1.07035
1.03346
0.998623
0.966368
0.936755
0.909696
0.884991
0.862387
0.841621
0.822471
0.804747
0.788307
0.77302
0.758744
0.745511
0.733293
0.721841
0.711156
0.701306
0.692198
0.683792
0.676054
0.66881
0.661758
1.03862
1.03318
1.01486
0.989476
0.961235
0.930167
0.899188
0.869412
0.841109
0.814747
0.790534
0.768407
0.748191
0.729664
0.712607
0.696838
0.682202
0.668571
0.655772
0.643877
0.632891
0.622525
0.612802
0.603826
0.595505
0.587792
0.580662
0.574092
0.567923
0.561892
0.867336
0.863213
0.849068
0.829173
0.807243
0.782581
0.757482
0.733392
0.710489
0.689039
0.669357
0.651367
0.634914
0.619806
0.605864
0.592936
0.580897
0.569614
0.559077
0.54926
0.539996
0.531284
0.52317
0.515613
0.508581
0.50205
0.495998
0.490411
0.485142
0.479964
0.727192
0.724202
0.713525
0.698262
0.681556
0.661883
0.641352
0.621988
0.603561
0.586242
0.570359
0.555819
0.542489
0.530209
0.518841
0.508257
0.498355
0.488997
0.480246
0.472109
0.464361
0.45702
0.45018
0.443792
0.437828
0.432275
0.427116
0.422345
0.417827
0.413362
0.613867
0.611812
0.603957
0.592513
0.57999
0.564296
0.547484
0.532043
0.517303
0.503482
0.490786
0.479113
0.468362
0.458413
0.449164
0.4405
0.432322
0.424587
0.417301
0.410397
0.403846
0.397668
0.391858
0.38641
0.381308
0.376544
0.372106
0.367992
0.364077
0.360186
0.523363
0.522028
0.516374
0.507923
0.498657
0.486466
0.472902
0.460699
0.449019
0.43806
0.427939
0.41858
0.409916
0.401855
0.394308
0.387185
0.380361
0.373892
0.367831
0.361981
0.356353
0.351053
0.346046
0.341327
0.336889
0.33273
0.32884
0.325222
0.321762
0.318303
0.452136
0.451331
0.447347
0.441199
0.434508
0.425604
0.414769
0.405058
0.396044
0.38738
0.379269
0.371727
0.364715
0.358159
0.351968
0.34607
0.340328
0.334866
0.329763
0.324745
0.31985
0.31524
0.310862
0.306713
0.302793
0.299102
0.295635
0.292398
0.289284
0.286141
0.397017
0.396597
0.393867
0.389489
0.384854
0.378883
0.370416
0.362506
0.355588
0.348702
0.342097
0.33592
0.330152
0.324727
0.319557
0.314584
0.309667
0.304964
0.300573
0.296183
0.291848
0.287757
0.283851
0.280132
0.276601
0.273263
0.270116
0.267167
0.264314
0.26141
0.355215
0.355079
0.353299
0.350286
0.347215
0.343471
0.337219
0.330912
0.325508
0.319961
0.314443
0.30926
0.304404
0.29981
0.295399
0.29112
0.286836
0.282712
0.278854
0.274947
0.271051
0.267362
0.263823
0.260439
0.257212
0.254152
0.251261
0.248541
0.245872
0.243172
0.324205
0.324308
0.323285
0.321355
0.319474
0.317318
0.312941
0.307903
0.303409
0.298777
0.294048
0.289596
0.285395
0.281377
0.277486
0.273682
0.26984
0.266113
0.262609
0.259036
0.255453
0.252044
0.248765
0.245618
0.242612
0.239758
0.237053
0.234455
0.231956
0.229506
0.301647
0.301966
0.30155
0.300484
0.299522
0.298526
0.295631
0.291509
0.287554
0.283575
0.279516
0.275675
0.27199
0.268413
0.264916
0.261459
0.257945
0.254505
0.251245
0.247918
0.244578
0.241385
0.238307
0.235351
0.232526
0.229838
0.227295
0.224942
0.222652
0.220242
0.285523
0.286019
0.286061
0.285633
0.285323
0.285092
0.283277
0.280014
0.276611
0.273074
0.269545
0.266201
0.262949
0.259755
0.256592
0.253424
0.250184
0.246973
0.243882
0.240744
0.237593
0.234557
0.231623
0.228799
0.226099
0.223529
0.221068
0.218754
0.21655
0.214296
0.274189
0.274837
0.275214
0.275223
0.275342
0.275601
0.274612
0.271794
0.268647
0.265565
0.262475
0.259432
0.256414
0.253408
0.250392
0.247345
0.244229
0.241105
0.238042
0.234968
0.231898
0.228912
0.22602
0.223237
0.22057
0.218031
0.21565
0.21341
0.211189
0.208925
0.266313
0.267056
0.267671
0.267993
0.268433
0.269066
0.268764
0.266213
0.263173
0.2606
0.257893
0.255021
0.252135
0.249235
0.246303
0.243327
0.240301
0.237232
0.234171
0.231146
0.228148
0.225207
0.222357
0.219618
0.216997
0.214506
0.212148
0.209935
0.207788
0.205602
0.260613
0.261438
0.262201
0.262707
0.263347
0.264226
0.264527
0.262589
0.259648
0.257022
0.254248
0.251314
0.248446
0.245588
0.2427
0.239763
0.236776
0.233701
0.230633
0.227663
0.224681
0.221724
0.218885
0.216163
0.213558
0.211061
0.2087
0.206531
0.204431
0.202275
0.256409
0.257267
0.258105
0.258704
0.259428
0.260397
0.261094
0.259953
0.25713
0.254027
0.250912
0.247785
0.244798
0.241847
0.238875
0.235857
0.23278
0.229574
0.226405
0.223413
0.220354
0.217295
0.2144
0.211629
0.208982
0.206501
0.204161
0.201926
0.199769
0.197617
0.252798
0.25367
0.254543
0.255171
0.255908
0.256888
0.257803
0.257335
0.254708
0.251445
0.24845
0.245428
0.242418
0.239401
0.236347
0.233242
0.230085
0.22679
0.223551
0.220529
0.217436
0.214341
0.211433
0.208662
0.206025
0.203536
0.201199
0.199027
0.196947
0.194859
0.24923
0.250107
0.250962
0.251531
0.252186
0.253071
0.253995
0.253925
0.251793
0.248748
0.245947
0.243101
0.240074
0.236991
0.233856
0.230673
0.227453
0.224143
0.220866
0.217743
0.214625
0.211542
0.208611
0.205818
0.203166
0.200667
0.198329
0.19616
0.194096
0.192031
0.24605
0.246925
0.247744
0.248235
0.248775
0.249505
0.250313
0.250486
0.248933
0.246029
0.243075
0.24011
0.236859
0.233547
0.230196
0.226811
0.223403
0.219961
0.216536
0.213205
0.209965
0.206807
0.203773
0.200882
0.198119
0.19552
0.193144
0.190947
0.188845
0.186756
0.243286
0.244188
0.245048
0.245588
0.246179
0.246965
0.247874
0.248415
0.24754
0.245025
0.241969
0.23882
0.235482
0.23208
0.22865
0.22518
0.221687
0.218192
0.214675
0.211242
0.207996
0.204808
0.201697
0.198755
0.195995
0.193402
0.190959
0.188703
0.186595
0.184512
0.240467
0.241365
0.242194
0.242659
0.243126
0.243779
0.244595
0.245276
0.244974
0.242981
0.239904
0.23671
0.233456
0.23
0.226478
0.222901
0.219293
0.215674
0.211974
0.208416
0.205149
0.201838
0.198547
0.195482
0.192592
0.189871
0.187336
0.184993
0.182789
0.180619
0.238668
0.23956
0.240391
0.240816
0.24119
0.241743
0.242473
0.243203
0.243307
0.241953
0.239286
0.236347
0.233169
0.229542
0.225755
0.221872
0.217932
0.213969
0.209946
0.206045
0.202401
0.19876
0.195179
0.19182
0.188652
0.18567
0.182887
0.180306
0.177874
0.175492
0.23771
0.238643
0.239569
0.240095
0.240562
0.241221
0.242081
0.243034
0.243602
0.242987
0.240868
0.237986
0.234746
0.23106
0.227094
0.222986
0.218799
0.214581
0.210352
0.206186
0.202178
0.198289
0.19453
0.190958
0.187589
0.184425
0.181475
0.178741
0.176171
0.17367
0.236371
0.237332
0.238284
0.238859
0.239346
0.239974
0.240809
0.241814
0.242668
0.242647
0.241058
0.23805
0.234513
0.230728
0.226637
0.22239
0.21805
0.213664
0.209282
0.204893
0.200634
0.196616
0.192695
0.188885
0.185319
0.182011
0.178922
0.176035
0.173318
0.170684
0.23485
0.235818
0.23678
0.237387
0.237854
0.238407
0.239172
0.240139
0.241121
0.241548
0.240587
0.23773
0.233955
0.230067
0.225885
0.221442
0.216885
0.212274
0.207655
0.202949
0.198424
0.194274
0.190118
0.186055
0.182313
0.178798
0.17551
0.172459
0.169588
0.166815
0.232964
0.233937
0.234907
0.235499
0.235904
0.236356
0.237007
0.237871
0.238854
0.239548
0.239195
0.237077
0.23359
0.229696
0.225478
0.220867
0.21611
0.211289
0.206453
0.201584
0.196852
0.192415
0.188082
0.183892
0.179976
0.176298
0.172856
0.169654
0.166637
0.163732
0.230784
0.231754
0.232721
0.233275
0.23366
0.234048
0.234562
0.235276
0.236154
0.236937
0.237018
0.235672
0.232733
0.229087
0.225068
0.220508
0.21562
0.210588
0.205522
0.200487
0.195553
0.190809
0.186285
0.181958
0.177849
0.173978
0.170354
0.166974
0.16379
0.160727
0.228528
0.229513
0.230484
0.230998
0.231373
0.231736
0.232167
0.23278
0.233578
0.234413
0.234807
0.234083
0.231778
0.228335
0.224403
0.21995
0.214962
0.20976
0.204493
0.19926
0.194062
0.189082
0.184462
0.179966
0.175621
0.171563
0.167766
0.16422
0.160885
0.157684
0.226226
0.227237
0.228235
0.22877
0.229135
0.229495
0.229938
0.230551
0.231362
0.232305
0.233033
0.232912
0.231242
0.227925
0.223819
0.219264
0.214178
0.208852
0.203436
0.198023
0.192558
0.187365
0.182634
0.177899
0.173254
0.168973
0.164967
0.161222
0.157693
0.154321
0.22356
0.224586
0.225602
0.226177
0.226582
0.22697
0.227414
0.227977
0.228721
0.229636
0.230499
0.230799
0.229778
0.226926
0.22286
0.218433
0.213538
0.208162
0.202575
0.196934
0.191253
0.185769
0.180636
0.175599
0.170719
0.16617
0.161904
0.157916
0.154153
0.150565
0.220598
0.221629
0.222651
0.223245
0.223687
0.224092
0.224507
0.224992
0.225626
0.226439
0.22731
0.227855
0.227379
0.225245
0.221515
0.217116
0.212199
0.206671
0.200875
0.194986
0.189086
0.183325
0.177829
0.172532
0.167453
0.162672
0.15819
0.154006
0.150068
0.146325
0.217521
0.218561
0.219599
0.220198
0.220631
0.221026
0.221416
0.221853
0.222411
0.223147
0.224025
0.224765
0.224796
0.223355
0.219946
0.215211
0.21004
0.20447
0.198531
0.192447
0.186366
0.180356
0.174543
0.169035
0.163779
0.158793
0.154138
0.149808
0.145749
0.141905
0.2144
0.215457
0.216517
0.217129
0.217574
0.217979
0.218364
0.218778
0.219279
0.219941
0.220783
0.221625
0.222014
0.221177
0.218396
0.213847
0.208762
0.203314
0.197284
0.191032
0.184728
0.178393
0.172292
0.166602
0.161069
0.155769
0.150877
0.146334
0.142082
0.138065
0.211224
0.212305
0.213404
0.214059
0.214554
0.215011
0.215445
0.215893
0.2164
0.217035
0.217846
0.218749
0.219414
0.219195
0.217336
0.213604
0.208818
0.203392
0.197322
0.190938
0.184433
0.177776
0.171361
0.165462
0.159638
0.154007
0.14886
0.144074
0.139591
0.135357
0.20785
0.208958
0.210099
0.210799
0.211349
0.211868
0.212369
0.212879
0.213431
0.214089
0.214908
0.215879
0.216782
0.217106
0.216135
0.213311
0.208812
0.203362
0.197263
0.190703
0.183994
0.177161
0.17052
0.164322
0.158264
0.152424
0.147019
0.141973
0.137226
0.132738
0.204195
0.20532
0.20648
0.207193
0.207761
0.208303
0.208831
0.209364
0.209931
0.21058
0.211379
0.212353
0.213383
0.214071
0.213731
0.211613
0.207396
0.201995
0.195956
0.189307
0.182443
0.17548
0.168653
0.162133
0.155817
0.149763
0.144078
0.138725
0.133666
0.128871
0.200299
0.201428
0.202579
0.203267
0.203804
0.204306
0.20479
0.205266
0.205765
0.206316
0.206992
0.207832
0.208804
0.209626
0.209706
0.208222
0.20448
0.199151
0.19317
0.186602
0.17967
0.172619
0.165604
0.158768
0.152244
0.146049
0.140172
0.13463
0.129396
0.124442
0.196308
0.19743
0.198555
0.199192
0.199662
0.200079
0.200462
0.200819
0.201174
0.201548
0.202006
0.202599
0.203351
0.204094
0.204369
0.203413
0.20044
0.195452
0.189525
0.183029
0.175966
0.168726
0.161428
0.154396
0.147851
0.141527
0.13547
0.129877
0.124644
0.119731
0.192397
0.193516
0.194624
0.195223
0.195642
0.195997
0.196303
0.19657
0.196811
0.197048
0.19733
0.19772
0.198269
0.198902
0.199301
0.198822
0.19667
0.192248
0.186283
0.179552
0.172207
0.164603
0.15685
0.149466
0.142761
0.13617
0.129804
0.124033
0.118692
0.11373
0.18866
0.189787
0.190904
0.191507
0.191929
0.192288
0.192594
0.192864
0.193099
0.193323
0.193568
0.193901
0.194387
0.195015
0.195596
0.195584
0.194181
0.190525
0.184757
0.177971
0.170588
0.162725
0.154635
0.146826
0.139623
0.132584
0.125845
0.11972
0.114087
0.108868
0.185079
0.186224
0.187373
0.188013
0.188482
0.188895
0.189262
0.189596
0.189896
0.190178
0.190461
0.190798
0.191252
0.191862
0.192527
0.192863
0.192158
0.189561
0.184647
0.17825
0.170988