/*--------------------------------*- C++ -*----------------------------------*\
| =========                 |                                                 |
| \\      /  F ield         | OpenFOAM: The Open Source CFD Toolbox           |
|  \\    /   O peration     | Version:  2312                                  |
|   \\  /    A nd           | Website:  www.openfoam.com                      |
|    \\/     M anipulation  |                                                 |
\*---------------------------------------------------------------------------*/
FoamFile
{
    version     2.0;
    format      ascii;
    arch        "LSB;label=32;scalar=64";
    class       surfaceScalarField;
    location    "20000";
    object      phi;
}
// * * * * * * * * * * * * * * * * * * * * * * * * * * * * * * * * * * * * * //

dimensions      [0 3 -1 0 0 0 0];

oriented        oriented;

internalField   nonuniform List<scalar> 
58450
(
1.54993e-09
-1.54995e-09
5.54875e-09
-3.99892e-09
1.10537e-08
-5.50511e-09
1.78645e-08
-6.8107e-09
2.53973e-08
-7.53281e-09
3.32213e-08
-7.82399e-09
4.09882e-08
-7.7669e-09
4.845e-08
-7.4616e-09
5.5462e-08
-7.01192e-09
6.19502e-08
-6.48804e-09
6.78899e-08
-5.93926e-09
7.32884e-08
-5.39836e-09
7.81719e-08
-4.88324e-09
8.25761e-08
-4.4041e-09
8.65411e-08
-3.96487e-09
9.01077e-08
-3.56649e-09
9.3315e-08
-3.20727e-09
9.61999e-08
-2.88464e-09
9.87958e-08
-2.59597e-09
1.01133e-07
-2.33754e-09
1.0324e-07
-2.10644e-09
1.0514e-07
-1.90009e-09
1.06856e-07
-1.71594e-09
1.08407e-07
-1.55104e-09
1.0981e-07
-1.4031e-09
1.1108e-07
-1.27046e-09
1.12232e-07
-1.15187e-09
1.13277e-07
-1.04449e-09
1.14218e-07
-9.41542e-10
-8.63776e-10
1.15082e-07
4.24022e-09
-5.79021e-09
1.48441e-08
-1.4603e-08
2.97534e-08
-2.04147e-08
4.80643e-08
-2.51215e-08
6.84436e-08
-2.79122e-08
8.97655e-08
-2.91459e-08
1.11119e-07
-2.91203e-08
1.31848e-07
-2.81905e-08
1.51535e-07
-2.66986e-08
1.69943e-07
-2.48962e-08
1.86968e-07
-2.29634e-08
2.02591e-07
-2.10218e-08
2.16853e-07
-1.91445e-08
2.29824e-07
-1.73748e-08
2.41593e-07
-1.57334e-08
2.52255e-07
-1.42285e-08
2.61906e-07
-1.28587e-08
2.7064e-07
-1.16179e-08
2.78542e-07
-1.04982e-08
2.85693e-07
-9.4889e-09
2.92167e-07
-8.58051e-09
2.98031e-07
-7.76409e-09
3.03346e-07
-7.03062e-09
3.08166e-07
-6.37074e-09
3.12539e-07
-5.77667e-09
3.16511e-07
-5.2419e-09
3.2012e-07
-4.76077e-09
3.23401e-07
-4.32564e-09
3.26386e-07
-3.92682e-09
-3.58354e-09
3.29106e-07
6.42616e-09
-1.22164e-08
2.22559e-08
-3.04327e-08
4.4807e-08
-4.29659e-08
7.24345e-08
-5.2749e-08
1.03292e-07
-5.87693e-08
1.35764e-07
-6.16186e-08
1.68526e-07
-6.18823e-08
2.00606e-07
-6.02696e-08
2.31348e-07
-5.74411e-08
2.60356e-07
-5.39038e-08
2.87421e-07
-5.00282e-08
3.12469e-07
-4.60701e-08
3.35517e-07
-4.21916e-08
3.56634e-07
-3.84925e-08
3.75928e-07
-3.50267e-08
3.93519e-07
-3.18195e-08
4.09536e-07
-2.88759e-08
4.24108e-07
-2.61896e-08
4.37358e-07
-2.37482e-08
4.49403e-07
-2.15342e-08
4.60353e-07
-1.95302e-08
4.70308e-07
-1.77192e-08
4.7936e-07
-1.60834e-08
4.87595e-07
-1.46051e-08
4.95087e-07
-1.32693e-08
5.01908e-07
-1.20627e-08
5.0812e-07
-1.09727e-08
5.13781e-07
-9.98686e-09
5.18948e-07
-9.09316e-09
-8.29111e-09
5.23655e-07
7.93949e-09
-2.01559e-08
2.74579e-08
-4.99512e-08
5.55208e-08
-7.10291e-08
8.98954e-08
-8.71235e-08
1.28381e-07
-9.72549e-08
1.69065e-07
-1.02302e-07
2.10361e-07
-1.03178e-07
2.51086e-07
-1.00995e-07
2.90416e-07
-9.6771e-08
3.27819e-07
-9.13066e-08
3.6299e-07
-8.51983e-08
3.95786e-07
-7.88661e-08
4.2618e-07
-7.25854e-08
4.5422e-07
-6.65323e-08
4.80002e-07
-6.08083e-08
5.03649e-07
-5.5467e-08
5.25301e-07
-5.05275e-08
5.451e-07
-4.59887e-08
5.63189e-07
-4.18375e-08
5.79707e-07
-3.80516e-08
5.94783e-07
-3.46068e-08
6.08541e-07
-3.14765e-08
6.21091e-07
-2.86339e-08
6.32541e-07
-2.60551e-08
6.42989e-07
-2.3717e-08
6.52524e-07
-2.15979e-08
6.61229e-07
-1.96772e-08
6.69178e-07
-1.79362e-08
6.76443e-07
-1.63582e-08
-1.49236e-08
6.83075e-07
8.85238e-09
-2.90083e-08
3.07645e-08
-7.18634e-08
6.24954e-08
-1.0276e-07
1.01382e-07
-1.2601e-07
1.44997e-07
-1.4087e-07
1.91237e-07
-1.48542e-07
2.38367e-07
-1.50309e-07
2.85076e-07
-1.47704e-07
3.30429e-07
-1.42124e-07
3.73804e-07
-1.34681e-07
4.14823e-07
-1.26217e-07
4.53289e-07
-1.17333e-07
4.89135e-07
-1.08431e-07
5.22381e-07
-9.97778e-08
5.53104e-07
-9.15316e-08
5.8142e-07
-8.37824e-08
6.07463e-07
-7.65704e-08
6.31378e-07
-6.99045e-08
6.53315e-07
-6.37744e-08
6.7342e-07
-5.81562e-08
6.91833e-07
-5.30203e-08
7.08691e-07
-4.8334e-08
7.2412e-07
-4.40627e-08
7.38238e-07
-4.01733e-08
7.51155e-07
-3.6634e-08
7.62972e-07
-3.3415e-08
7.73782e-07
-3.04878e-08
7.83673e-07
-2.78269e-08
7.92725e-07
-2.54097e-08
-2.32033e-08
8.01004e-07
9.42105e-09
-3.84294e-08
3.29712e-08
-9.54137e-08
6.72532e-08
-1.37042e-07
1.09288e-07
-1.68045e-07
1.56479e-07
-1.88061e-07
2.06587e-07
-1.9865e-07
2.57775e-07
-2.01497e-07
3.08646e-07
-1.98575e-07
3.58194e-07
-1.91672e-07
4.05741e-07
-1.82228e-07
4.50864e-07
-1.7134e-07
4.93329e-07
-1.59798e-07
5.33041e-07
-1.48143e-07
5.69998e-07
-1.36735e-07
6.04264e-07
-1.25798e-07
6.35944e-07
-1.15463e-07
6.65169e-07
-1.05795e-07
6.92082e-07
-9.68172e-08
7.16832e-07
-8.8525e-08
7.39571e-07
-8.08947e-08
7.60444e-07
-7.38934e-08
7.79593e-07
-6.74834e-08
7.97154e-07
-6.16231e-08
8.13251e-07
-5.62707e-08
8.28003e-07
-5.13861e-08
8.41519e-07
-4.69313e-08
8.53902e-07
-4.28699e-08
8.65243e-07
-3.91688e-08
8.75632e-07
-3.57983e-08
-3.27174e-08
8.85146e-07
9.85905e-09
-4.82885e-08
3.47372e-08
-1.20292e-07
7.10696e-08
-1.73375e-07
1.15633e-07
-2.12608e-07
1.65684e-07
-2.38112e-07
2.18862e-07
-2.51828e-07
2.73241e-07
-2.55875e-07
3.2735e-07
-2.52684e-07
3.80129e-07
-2.44451e-07
4.30858e-07
-2.32957e-07
4.79084e-07
-2.19565e-07
5.24551e-07
-2.05265e-07
5.67148e-07
-1.9074e-07
6.06862e-07
-1.7645e-07
6.43752e-07
-1.62687e-07
6.77916e-07
-1.49627e-07
7.09485e-07
-1.37364e-07
7.38602e-07
-1.25935e-07
7.65421e-07
-1.15343e-07
7.90093e-07
-1.05567e-07
8.12771e-07
-9.65716e-08
8.33601e-07
-8.83134e-08
8.52723e-07
-8.07447e-08
8.70268e-07
-7.3816e-08
8.86362e-07
-6.74794e-08
9.01119e-07
-6.16886e-08
9.14648e-07
-5.63992e-08
9.27049e-07
-5.15696e-08
9.38413e-07
-4.71626e-08
-4.31316e-08
9.48827e-07
1.02582e-08
-5.85467e-08
3.63467e-08
-1.4638e-07
7.45112e-08
-2.11539e-07
1.21341e-07
-2.59438e-07
1.73949e-07
-2.9072e-07
2.29854e-07
-3.07733e-07
2.87036e-07
-3.13058e-07
3.43957e-07
-3.09604e-07
3.99506e-07
-2.99999e-07
4.52928e-07
-2.86379e-07
5.03747e-07
-2.70384e-07
5.51694e-07
-2.53211e-07
5.96648e-07
-2.35694e-07
6.38594e-07
-2.18395e-07
6.77588e-07
-2.0168e-07
7.13731e-07
-1.85771e-07
7.47156e-07
-1.70788e-07
7.78011e-07
-1.56789e-07
8.06451e-07
-1.43784e-07
8.32636e-07
-1.31752e-07
8.56721e-07
-1.20657e-07
8.7886e-07
-1.10451e-07
8.99195e-07
-1.0108e-07
9.17865e-07
-9.24862e-08
9.34999e-07
-8.46139e-08
9.50719e-07
-7.74085e-08
9.65138e-07
-7.08176e-08
9.78359e-07
-6.47909e-08
9.9048e-07
-5.9283e-08
-5.42426e-08
1.00159e-06
1.06467e-08
-6.91934e-08
3.79113e-08
-1.73645e-07
7.78388e-08
-2.51467e-07
1.26851e-07
-3.0845e-07
1.81914e-07
-3.45783e-07
2.40422e-07
-3.66241e-07
3.0026e-07
-3.72896e-07
3.59818e-07
-3.69162e-07
4.17937e-07
-3.58118e-07
4.7383e-07
-3.42272e-07
5.27002e-07
-3.23556e-07
5.77173e-07
-3.03382e-07
6.24218e-07
-2.82739e-07
6.68123e-07
-2.623e-07
7.08946e-07
-2.42504e-07
7.46795e-07
-2.23619e-07
7.81806e-07
-2.058e-07
8.14135e-07
-1.89118e-07
8.43943e-07
-1.73592e-07
8.71396e-07
-1.59205e-07
8.96656e-07
-1.45917e-07
9.19881e-07
-1.33676e-07
9.41221e-07
-1.2242e-07
9.60819e-07
-1.12085e-07
9.78811e-07
-1.02605e-07
9.95321e-07
-9.39194e-08
1.01047e-06
-8.59652e-08
1.02436e-06
-7.86844e-08
1.0371e-06
-7.20227e-08
-6.59244e-08
1.04878e-06
1.10387e-08
-8.02322e-08
3.94895e-08
-2.02096e-07
8.11919e-08
-2.93169e-07
1.32399e-07
-3.59658e-07
1.89924e-07
-4.03308e-07
2.51032e-07
-4.27349e-07
3.13507e-07
-4.3537e-07
3.75665e-07
-4.31321e-07
4.36299e-07
-4.18752e-07
4.94591e-07
-4.00564e-07
5.50028e-07
-3.78992e-07
6.02321e-07
-3.55675e-07
6.51346e-07
-3.31764e-07
6.97091e-07
-3.08044e-07
7.39618e-07
-2.85031e-07
7.79043e-07
-2.63044e-07
8.1551e-07
-2.42267e-07
8.49181e-07
-2.22789e-07
8.80228e-07
-2.04639e-07
9.08821e-07
-1.87799e-07
9.35132e-07
-1.72228e-07
9.59324e-07
-1.57868e-07
9.81553e-07
-1.4465e-07
1.00197e-06
-1.32502e-07
1.02072e-06
-1.2135e-07
1.03792e-06
-1.11123e-07
1.0537e-06
-1.0175e-07
1.06818e-06
-9.31633e-08
1.08146e-06
-8.53011e-08
-7.81017e-08
1.09364e-06
1.14428e-08
-9.16749e-08
4.11119e-08
-2.31765e-07
8.46367e-08
-3.36694e-07
1.38095e-07
-4.13116e-07
1.98139e-07
-4.63352e-07
2.61896e-07
-4.91106e-07
3.27047e-07
-5.00521e-07
3.91834e-07
-4.96107e-07
4.54997e-07
-4.81914e-07
5.15688e-07
-4.61255e-07
5.73378e-07
-4.36682e-07
6.27772e-07
-4.1007e-07
6.78746e-07
-3.82738e-07
7.26292e-07
-3.5559e-07
7.70479e-07
-3.29219e-07
8.11432e-07
-3.03997e-07
8.49303e-07
-2.80138e-07
8.84264e-07
-2.57751e-07
9.16495e-07
-2.36869e-07
9.46174e-07
-2.17478e-07
9.73481e-07
-1.99535e-07
9.98586e-07
-1.82973e-07
1.02165e-06
-1.67718e-07
1.04284e-06
-1.53688e-07
1.06229e-06
-1.408e-07
1.08014e-06
-1.28973e-07
1.09652e-06
-1.18127e-07
1.11154e-06
-1.08186e-07
1.12532e-06
-9.90782e-08
-9.07364e-08
1.13795e-06
1.18639e-08
-1.03539e-07
4.27928e-08
-2.62694e-07
8.82012e-08
-3.82103e-07
1.43983e-07
-4.68897e-07
2.0662e-07
-5.25989e-07
2.73097e-07
-5.57584e-07
3.40986e-07
-5.6841e-07
4.08451e-07
-5.63572e-07
4.74182e-07
-5.47646e-07
5.37302e-07
-5.24375e-07
5.97265e-07
-4.96645e-07
6.53771e-07
-4.66576e-07
7.06698e-07
-4.35664e-07
7.56043e-07
-4.04934e-07
8.01884e-07
-3.75061e-07
8.44355e-07
-3.46467e-07
8.83617e-07
-3.19401e-07
9.19853e-07
-2.93986e-07
9.5325e-07
-2.70266e-07
9.83998e-07
-2.48226e-07
1.01228e-06
-2.27819e-07
1.03828e-06
-2.08973e-07
1.06217e-06
-1.91605e-07
1.0841e-06
-1.75623e-07
1.10424e-06
-1.60936e-07
1.12272e-06
-1.47451e-07
1.13967e-06
-1.35079e-07
1.15522e-06
-1.23735e-07
1.16948e-06
-1.13339e-07
-1.03814e-07
1.18256e-06
1.23045e-08
-1.15843e-07
4.45379e-08
-2.94927e-07
9.18954e-08
-4.2946e-07
1.50077e-07
-5.27079e-07
2.15386e-07
-5.91297e-07
2.84657e-07
-6.26855e-07
3.5535e-07
-6.39103e-07
4.25551e-07
-6.33772e-07
4.93897e-07
-6.15993e-07
5.59483e-07
-5.8996e-07
6.21747e-07
-5.58909e-07
6.80387e-07
-5.25216e-07
7.35283e-07
-4.9056e-07
7.86438e-07
-4.5609e-07
8.33942e-07
-4.22564e-07
8.77935e-07
-3.9046e-07
9.18592e-07
-3.60057e-07
9.56103e-07
-3.31497e-07
9.90667e-07
-3.04829e-07
1.02248e-06
-2.80041e-07
1.05174e-06
-2.57079e-07
1.07863e-06
-2.35866e-07
1.10334e-06
-2.16308e-07
1.12602e-06
-1.98305e-07
1.14684e-06
-1.81755e-07
1.16594e-06
-1.66554e-07
1.18347e-06
-1.52604e-07
1.19954e-06
-1.39808e-07
1.21428e-06
-1.28079e-07
-1.1733e-07
1.2278e-06
1.27654e-08
-1.28609e-07
4.6349e-08
-3.28511e-07
9.5722e-08
-4.78833e-07
1.56381e-07
-5.87738e-07
2.2444e-07
-6.59356e-07
2.96579e-07
-6.98995e-07
3.70142e-07
-7.12665e-07
4.43132e-07
-7.06763e-07
5.1414e-07
-6.87e-07
5.82227e-07
-6.58047e-07
6.46822e-07
-6.23504e-07
7.0762e-07
-5.86014e-07
7.64503e-07
-5.47443e-07
8.17485e-07
-5.09072e-07
8.66663e-07
-4.71742e-07
9.1219e-07
-4.35987e-07
9.5425e-07
-4.02117e-07
9.93045e-07
-3.70292e-07
1.02878e-06
-3.40567e-07
1.06167e-06
-3.12929e-07
1.09191e-06
-2.87321e-07
1.1197e-06
-2.63656e-07
1.14523e-06
-2.41832e-07
1.16866e-06
-2.21738e-07
1.19017e-06
-2.0326e-07
1.2099e-06
-1.86286e-07
1.228e-06
-1.70704e-07
1.2446e-06
-1.56408e-07
1.25982e-06
-1.43301e-07
-1.31289e-07
1.27378e-06
1.32465e-08
-1.41855e-07
4.82265e-08
-3.63491e-07
9.96811e-08
-5.30288e-07
1.62893e-07
-6.50949e-07
2.33778e-07
-7.30241e-07
3.08856e-07
-7.74073e-07
3.85349e-07
-7.89158e-07
4.61181e-07
-7.82595e-07
5.3489e-07
-7.60709e-07
6.05513e-07
-7.2867e-07
6.72466e-07
-6.90457e-07
7.35443e-07
-6.4899e-07
7.94332e-07
-6.06333e-07
8.49156e-07
-5.63895e-07
9.00022e-07
-5.22609e-07
9.47095e-07
-4.8306e-07
9.90569e-07
-4.45592e-07
1.03066e-06
-4.10381e-07
1.06758e-06
-3.77489e-07
1.10155e-06
-3.46901e-07
1.13278e-06
-3.18553e-07
1.16148e-06
-2.92353e-07
1.18783e-06
-2.68185e-07
1.21202e-06
-2.4593e-07
1.23422e-06
-2.2546e-07
1.25459e-06
-2.06652e-07
1.27327e-06
-1.89385e-07
1.2904e-06
-1.7354e-07
1.30611e-06
-1.5901e-07
-1.45693e-07
1.32052e-06
1.37475e-08
-1.55603e-07
5.017e-08
-3.99914e-07
1.03771e-07
-5.83889e-07
1.6961e-07
-7.16788e-07
2.43395e-07
-8.04025e-07
3.21477e-07
-8.52155e-07
4.00956e-07
-8.68638e-07
4.79675e-07
-8.61314e-07
5.56123e-07
-8.37156e-07
6.29309e-07
-8.01857e-07
6.98643e-07
-7.5979e-07
7.63818e-07
-7.14165e-07
8.24729e-07
-6.67244e-07
8.81409e-07
-6.20575e-07
9.33977e-07
-5.75177e-07
9.82609e-07
-5.31691e-07
1.02751e-06
-4.90494e-07
1.06891e-06
-4.51776e-07
1.10702e-06
-4.15605e-07
1.14209e-06
-3.81965e-07
1.17432e-06
-3.50787e-07
1.20393e-06
-3.21965e-07
1.23112e-06
-2.95377e-07
1.25608e-06
-2.70888e-07
1.27898e-06
-2.48363e-07
1.29999e-06
-2.27662e-07
1.31926e-06
-2.08655e-07
1.33694e-06
-1.91211e-07
1.35314e-06
-1.75213e-07
-1.60549e-07
1.36799e-06
1.4268e-08
-1.69871e-07
5.21786e-08
-4.37824e-07
1.07991e-07
-6.39701e-07
1.76527e-07
-7.85324e-07
2.53281e-07
-8.80779e-07
3.34428e-07
-9.33302e-07
4.16944e-07
-9.51154e-07
4.98589e-07
-9.42959e-07
5.77805e-07
-9.16372e-07
6.5358e-07
-8.77631e-07
7.25313e-07
-8.31523e-07
7.92701e-07
-7.81553e-07
8.55648e-07
-7.30191e-07
9.14196e-07
-6.79124e-07
9.68478e-07
-6.29458e-07
1.01868e-06
-5.81893e-07
1.06502e-06
-5.36833e-07
1.10773e-06
-4.94487e-07
1.14705e-06
-4.54927e-07
1.18322e-06
-4.18133e-07
1.21646e-06
-3.8403e-07
1.247e-06
-3.52502e-07
1.27504e-06
-3.23415e-07
1.30077e-06
-2.96622e-07
1.32438e-06
-2.71974e-07
1.34604e-06
-2.49322e-07
1.36591e-06
-2.28519e-07
1.38412e-06
-2.09428e-07
1.40083e-06
-1.91916e-07
-1.75863e-07
1.41614e-06
1.48077e-08
-1.84679e-07
5.42514e-08
-4.77268e-07
1.12337e-07
-6.97787e-07
1.83639e-07
-8.56627e-07
2.63426e-07
-9.60565e-07
3.47693e-07
-1.01757e-06
4.33289e-07
-1.03675e-06
5.17893e-07
-1.02756e-06
5.99901e-07
-9.9838e-07
6.78281e-07
-9.5601e-07
7.52425e-07
-9.05668e-07
8.22037e-07
-8.51164e-07
8.87028e-07
-7.95182e-07
9.47451e-07
-7.39547e-07
1.00345e-06
-6.85459e-07
1.05523e-06
-6.33669e-07
1.10301e-06
-5.84616e-07
1.14704e-06
-5.3852e-07
1.18758e-06
-4.95458e-07
1.22485e-06
-4.55409e-07
1.25911e-06
-4.18286e-07
1.29057e-06
-3.83967e-07
1.31946e-06
-3.52302e-07
1.34597e-06
-3.23134e-07
1.3703e-06
-2.96299e-07
1.39261e-06
-2.71635e-07
1.41307e-06
-2.48983e-07
1.43184e-06
-2.28192e-07
1.44904e-06
-2.09121e-07
-1.91638e-07
1.46482e-06
1.53661e-08
-2.00045e-07
5.63869e-08
-5.18289e-07
1.16805e-07
-7.58205e-07
1.90938e-07
-9.3076e-07
2.73816e-07
-1.04344e-06
3.61251e-07
-1.105e-06
4.49962e-07
-1.12546e-06
5.37549e-07
-1.11515e-06
6.22365e-07
-1.0832e-06
7.03358e-07
-1.037e-06
7.7992e-07
-9.8223e-07
8.51757e-07
-9.23001e-07
9.18791e-07
-8.62217e-07
9.81089e-07
-8.01845e-07
1.03881e-06
-7.43177e-07
1.09216e-06
-6.87019e-07
1.14138e-06
-6.33839e-07
1.18673e-06
-5.83872e-07
1.22847e-06
-5.37198e-07
1.26686e-06
-4.93791e-07
1.30213e-06
-4.53557e-07
1.33452e-06
-4.1636e-07
1.36426e-06
-3.82041e-07
1.39155e-06
-3.50426e-07
1.41659e-06
-3.21338e-07
1.43956e-06
-2.94602e-07
1.46062e-06
-2.70046e-07
1.47993e-06
-2.47507e-07
1.49764e-06
-2.26831e-07
-2.07875e-07
1.51388e-06
1.59426e-08
-2.15987e-07
5.85834e-08
-5.60929e-07
1.21392e-07
-8.21014e-07
1.98414e-07
-1.00778e-06
2.84436e-07
-1.12946e-06
3.75078e-07
-1.19565e-06
4.66931e-07
-1.21731e-06
5.57516e-07
-1.20574e-06
6.45146e-07
-1.17083e-06
7.28753e-07
-1.12061e-06
8.07728e-07
-1.0612e-06
8.81786e-07
-9.97059e-07
9.5086e-07
-9.3129e-07
1.01503e-06
-8.66013e-07
1.07446e-06
-8.02609e-07
1.12938e-06
-7.41939e-07
1.18004e-06
-6.84501e-07
1.22671e-06
-6.30542e-07
1.26966e-06
-5.80146e-07
1.30915e-06
-5.33279e-07
1.34543e-06
-4.89841e-07
1.37875e-06
-4.49683e-07
1.40934e-06
-4.1263e-07
1.43741e-06
-3.78497e-07
1.46317e-06
-3.47092e-07
1.48679e-06
-3.18225e-07
1.50846e-06
-2.91711e-07
1.52832e-06
-2.67373e-07
1.54654e-06
-2.45045e-07
-2.24575e-07
1.56324e-06
1.65368e-08
-2.32524e-07
6.08384e-08
-6.05231e-07
1.26091e-07
-8.86266e-07
2.06056e-07
-1.08775e-06
2.95265e-07
-1.21867e-06
3.89145e-07
-1.28953e-06
4.84157e-07
-1.31233e-06
5.77747e-07
-1.29933e-06
6.6819e-07
-1.26127e-06
7.54406e-07
-1.20683e-06
8.35787e-07
-1.14259e-06
9.12057e-07
-1.07333e-06
9.83162e-07
-1.0024e-06
1.04919e-06
-9.32046e-07
1.11034e-06
-8.63751e-07
1.16682e-06
-7.98427e-07
1.21892e-06
-7.36599e-07
1.26691e-06
-6.7853e-07
1.31106e-06
-6.243e-07
1.35166e-06
-5.73874e-07
1.38896e-06
-5.2714e-07
1.42321e-06
-4.83935e-07
1.45465e-06
-4.44073e-07
1.48351e-06
-4.07351e-07
1.50998e-06
-3.73563e-07
1.53426e-06
-3.42505e-07
1.55652e-06
-3.13977e-07
1.57694e-06
-2.8779e-07
1.59566e-06
-2.63766e-07
-2.41739e-07
1.61283e-06
1.71477e-08
-2.49672e-07
6.31489e-08
-6.51232e-07
1.30894e-07
-9.54011e-07
2.13849e-07
-1.1707e-06
3.06282e-07
-1.31111e-06
4.03422e-07
-1.38666e-06
5.01602e-07
-1.4105e-06
5.98195e-07
-1.39592e-06
6.91442e-07
-1.35452e-06
7.80255e-07
-1.29564e-06
8.6403e-07
-1.22636e-06
9.42502e-07
-1.1518e-06
1.01563e-06
-1.07552e-06
1.08352e-06
-9.99935e-07
1.14637e-06
-9.26598e-07
1.20442e-06
-8.56478e-07
1.25795e-06
-7.90133e-07
1.30725e-06
-7.27833e-07
1.35262e-06
-6.69662e-07
1.39432e-06
-6.15577e-07
1.43263e-06
-5.65453e-07
1.46782e-06
-5.19119e-07
1.50011e-06
-4.76369e-07
1.52975e-06
-4.36987e-07
1.55694e-06
-4.00752e-07
1.58188e-06
-3.67443e-07
1.60475e-06
-3.36848e-07
1.62572e-06
-3.08762e-07
1.64495e-06
-2.82995e-07
-2.59369e-07
1.66258e-06
1.77745e-08
-2.67446e-07
6.55113e-08
-6.98969e-07
1.35794e-07
-1.02429e-06
2.21779e-07
-1.25669e-06
3.17463e-07
-1.40679e-06
4.17875e-07
-1.48708e-06
5.19222e-07
-1.51185e-06
6.18807e-07
-1.4955e-06
7.14843e-07
-1.45055e-06
8.06235e-07
-1.38703e-06
8.92388e-07
-1.31251e-06
9.73047e-07
-1.23246e-06
1.04819e-06
-1.15066e-06
1.11792e-06
-1.06967e-06
1.18247e-06
-9.91141e-07
1.24208e-06
-9.16088e-07
1.29704e-06
-8.45097e-07
1.34766e-06
-7.7845e-07
1.39422e-06
-7.16229e-07
1.43703e-06
-6.58386e-07
1.47636e-06
-6.04783e-07
1.51248e-06
-5.55234e-07
1.54563e-06
-5.09521e-07
1.57605e-06
-4.67409e-07
1.60396e-06
-4.28661e-07
1.62956e-06
-3.93042e-07
1.65304e-06
-3.60325e-07
1.67456e-06
-3.30289e-07
1.6943e-06
-3.02733e-07
-2.77466e-07
1.7124e-06
1.84161e-08
-2.85862e-07
6.79215e-08
-7.48474e-07
1.4078e-07
-1.09715e-06
2.29827e-07
-1.34573e-06
3.28779e-07
-1.50574e-06
4.32465e-07
-1.59076e-06
5.36967e-07
-1.61635e-06
6.39524e-07
-1.59806e-06
7.38325e-07
-1.54935e-06
8.32273e-07
-1.48098e-06
9.20781e-07
-1.40102e-06
1.00361e-06
-1.31529e-06
1.08074e-06
-1.2278e-06
1.15231e-06
-1.14124e-06
1.21854e-06
-1.05737e-06
1.2797e-06
-9.7725e-07
1.3361e-06
-9.01487e-07
1.38802e-06
-8.30377e-07
1.43579e-06
-7.64001e-07
1.47971e-06
-7.02301e-07
1.52006e-06
-6.45129e-07
1.5571e-06
-5.92283e-07
1.59111e-06
-5.43528e-07
1.62232e-06
-4.98616e-07
1.65095e-06
-4.57291e-07
1.67721e-06
-4.19302e-07
1.70129e-06
-3.84408e-07
1.72338e-06
-3.52373e-07
1.74362e-06
-3.22981e-07
-2.9603e-07
1.76219e-06
1.90712e-08
-3.04933e-07
7.03743e-08
-7.99777e-07
1.4584e-07
-1.17262e-06
2.3797e-07
-1.43786e-06
3.40197e-07
-1.60797e-06
4.47147e-07
-1.69771e-06
5.54782e-07
-1.72399e-06
6.60282e-07
-1.70356e-06
7.61816e-07
-1.65089e-06
8.58288e-07
-1.57745e-06
9.49124e-07
-1.49186e-06
1.0341e-06
-1.40026e-06
1.1132e-06
-1.30691e-06
1.1866e-06
-1.21464e-06
1.2545e-06
-1.12528e-06
1.31721e-06
-1.03995e-06
1.37502e-06
-9.59298e-07
1.42825e-06
-8.83612e-07
1.47723e-06
-8.12975e-07
1.52225e-06
-7.47321e-07
1.56361e-06
-6.8649e-07
1.60159e-06
-6.30264e-07
1.63645e-06
-5.78392e-07
1.66845e-06
-5.30608e-07
1.6978e-06
-4.86642e-07
1.72472e-06
-4.46224e-07
1.74941e-06
-4.09098e-07
1.77205e-06
-3.75013e-07
1.79281e-06
-3.4374e-07
-3.15062e-07
1.81184e-06
1.97381e-08
-3.24671e-07
7.28636e-08
-8.52903e-07
1.50961e-07
-1.25071e-06
2.46185e-07
-1.53309e-06
3.51681e-07
-1.71346e-06
4.61873e-07
-1.80791e-06
5.72608e-07
-1.83472e-06
6.81011e-07
-1.81196e-06
7.85238e-07
-1.75511e-06
8.84198e-07
-1.67641e-06
9.77329e-07
-1.58499e-06
1.06442e-06
-1.48735e-06
1.14548e-06
-1.38797e-06
1.22067e-06
-1.28983e-06
1.29024e-06
-1.19485e-06
1.35448e-06
-1.10419e-06
1.4137e-06
-1.01852e-06
1.46824e-06
-9.38148e-07
1.51841e-06
-8.63147e-07
1.56454e-06
-7.93444e-07
1.60691e-06
-7.28865e-07
1.64582e-06
-6.69176e-07
1.68154e-06
-6.14111e-07
1.71432e-06
-5.63386e-07
1.74439e-06
-5.16712e-07
1.77197e-06
-4.73806e-07
1.79727e-06
-4.34393e-07
1.82046e-06
-3.98208e-07
1.84173e-06
-3.65007e-07
-3.34561e-07
1.86123e-06
2.0415e-08
-3.45086e-07
7.53821e-08
-9.0787e-07
1.56126e-07
-1.33146e-06
2.54445e-07
-1.63141e-06
3.63191e-07
-1.82221e-06
4.76592e-07
-1.92131e-06
5.90381e-07
-1.94851e-06
7.01639e-07
-1.92322e-06
8.08511e-07
-1.86198e-06
9.09915e-07
-1.77782e-06
1.0053e-06
-1.68038e-06
1.09448e-06
-1.57652e-06
1.17747e-06
-1.47096e-06
1.25445e-06
-1.36681e-06
1.32566e-06
-1.26606e-06
1.39142e-06
-1.16995e-06
1.45205e-06
-1.07915e-06
1.50789e-06
-9.9398e-07
1.55925e-06
-9.14513e-07
1.60647e-06
-8.40664e-07
1.64985e-06
-7.72248e-07
1.68969e-06
-7.09016e-07
1.72626e-06
-6.50682e-07
1.75982e-06
-5.96945e-07
1.79061e-06
-5.475e-07
1.81885e-06
-5.02046e-07
1.84475e-06
-4.60292e-07
1.8685e-06
-4.21956e-07
1.89027e-06
-3.86782e-07
-3.54525e-07
1.91024e-06
2.10998e-08
-3.66186e-07
7.79215e-08
-9.64691e-07
1.61317e-07
-1.41485e-06
2.62718e-07
-1.73281e-06
3.74684e-07
-1.93418e-06
4.91245e-07
-2.03787e-06
6.08032e-07
-2.0653e-06
7.22087e-07
-2.03728e-06
8.31548e-07
-1.97145e-06
9.35349e-07
-1.88162e-06
1.03295e-06
-1.77798e-06
1.12418e-06
-1.66775e-06
1.20908e-06
-1.55585e-06
1.28782e-06
-1.44555e-06
1.36067e-06
-1.33892e-06
1.42794e-06
-1.23722e-06
1.48997e-06
-1.14118e-06
1.54709e-06
-1.0511e-06
1.59964e-06
-9.67065e-07
1.64796e-06
-8.88978e-07
1.69234e-06
-8.16637e-07
1.73311e-06
-7.49778e-07
1.77052e-06
-6.881e-07
1.80486e-06
-6.31282e-07
1.83636e-06
-5.79002e-07
1.86526e-06
-5.30941e-07
1.89175e-06
-4.86789e-07
1.91605e-06
-4.46253e-07
1.93833e-06
-4.09059e-07
-3.74948e-07
1.95875e-06
2.179e-08
-3.87976e-07
8.04722e-08
-1.02337e-06
1.66513e-07
-1.50089e-06
2.70972e-07
-1.83727e-06
3.86112e-07
-2.04932e-06
5.05773e-07
-2.15753e-06
6.2549e-07
-2.18502e-06
7.42273e-07
-2.15406e-06
8.54263e-07
-2.08344e-06
9.60407e-07
-1.98776e-06
1.06019e-06
-1.87777e-06
1.15345e-06
-1.76101e-06
1.24023e-06
-1.64263e-06
1.32072e-06
-1.52604e-06
1.3952e-06
-1.41339e-06
1.46398e-06
-1.306e-06
1.52739e-06
-1.20459e-06
1.5858e-06
-1.1095e-06
1.63953e-06
-1.0208e-06
1.68893e-06
-9.38379e-07
1.73432e-06
-8.62026e-07
1.776e-06
-7.9146e-07
1.81427e-06
-7.26362e-07
1.84938e-06
-6.66393e-07
1.88159e-06
-6.11213e-07
1.91113e-06
-5.60486e-07
1.93823e-06
-5.13884e-07
1.96307e-06
-4.71098e-07
1.98585e-06
-4.31837e-07
-3.95831e-07
2.00673e-06
2.24828e-08
-4.10459e-07
8.30236e-08
-1.08391e-06
1.71694e-07
-1.58956e-06
2.7917e-07
-1.94474e-06
3.97424e-07
-2.16757e-06
5.20111e-07
-2.28021e-06
6.42678e-07
-2.30758e-06
7.62113e-07
-2.27349e-06
8.76566e-07
-2.19789e-06
9.85e-07
-2.09619e-06
1.08692e-06
-1.97969e-06
1.18217e-06
-1.85626e-06
1.27081e-06
-1.73128e-06
1.35304e-06
-1.60827e-06
1.42914e-06
-1.48949e-06
1.49941e-06
-1.37628e-06
1.56422e-06
-1.2694e-06
1.6239e-06
-1.16919e-06
1.67882e-06
-1.07572e-06
1.72931e-06
-9.88868e-07
1.77569e-06
-9.08415e-07
1.81829e-06
-8.34061e-07
1.8574e-06
-7.65467e-07
1.89329e-06
-7.02279e-07
1.92621e-06
-6.44135e-07
1.9564e-06
-5.90682e-07
1.98409e-06
-5.41576e-07
2.00949e-06
-4.96489e-07
2.03276e-06
-4.55117e-07
-4.17174e-07
2.05411e-06
2.31749e-08
-4.33634e-07
8.55638e-08
-1.1463e-06
1.76833e-07
-1.68083e-06
2.87274e-07
-2.05518e-06
4.08566e-07
-2.28886e-06
5.34189e-07
-2.40584e-06
6.59515e-07
-2.43291e-06
7.81513e-07
-2.39549e-06
8.98349e-07
-2.31473e-06
1.00901e-06
-2.20686e-06
1.11302e-06
-2.0837e-06
1.21023e-06
-1.95347e-06
1.30071e-06
-1.82176e-06
1.38465e-06
-1.69221e-06
1.46234e-06
-1.56717e-06
1.53409e-06
-1.44803e-06
1.60027e-06
-1.33557e-06
1.66122e-06
-1.23014e-06
1.71731e-06
-1.1318e-06
1.76887e-06
-1.04044e-06
1.81626e-06
-9.55797e-07
1.85977e-06
-8.77575e-07
1.89972e-06
-8.05412e-07
1.93637e-06
-7.38934e-07
1.97e-06
-6.77763e-07
2.00084e-06
-6.21526e-07
2.02913e-06
-5.69861e-07
2.05507e-06
-5.22424e-07
2.07884e-06
-4.78895e-07
-4.38974e-07
2.10064e-06
2.38628e-08
-4.57497e-07
8.808e-08
-1.21052e-06
1.81905e-07
-1.77466e-06
2.9524e-07
-2.16852e-06
4.19479e-07
-2.4131e-06
5.47933e-07
-2.53429e-06
6.75907e-07
-2.56088e-06
8.00369e-07
-2.51995e-06
9.1951e-07
-2.43387e-06
1.03234e-06
-2.31969e-06
1.13838e-06
-2.18974e-06
1.2375e-06
-2.05259e-06
1.32977e-06
-1.91403e-06
1.41539e-06
-1.77783e-06
1.49464e-06
-1.64642e-06
1.56785e-06
-1.52124e-06
1.63538e-06
-1.4031e-06
1.69758e-06
-1.29234e-06
1.75482e-06
-1.18904e-06
1.80745e-06
-1.09307e-06
1.85581e-06
-1.00416e-06
1.90023e-06
-9.21989e-07
1.941e-06
-8.46184e-07
1.97842e-06
-7.7635e-07
2.01274e-06
-7.12089e-07
2.04422e-06
-6.5301e-07
2.0731e-06
-5.98733e-07
2.09957e-06
-5.48897e-07
2.12384e-06
-5.03167e-07
-4.61225e-07
2.14609e-06
2.45426e-08
-4.82039e-07
9.0558e-08
-1.27654e-06
1.86881e-07
-1.87098e-06
3.03024e-07
-2.28466e-06
4.30099e-07
-2.54018e-06
5.6126e-07
-2.66545e-06
6.91763e-07
-2.69139e-06
8.18585e-07
-2.64678e-06
9.39942e-07
-2.55522e-06
1.05486e-06
-2.4346e-06
1.16287e-06
-2.29775e-06
1.26386e-06
-2.15357e-06
1.35787e-06
-2.00804e-06
1.44513e-06
-1.86509e-06
1.52591e-06
-1.7272e-06
1.60055e-06
-1.59588e-06
1.6694e-06
-1.47194e-06
1.73282e-06
-1.35577e-06
1.79119e-06
-1.24741e-06
1.84486e-06
-1.14674e-06
1.89419e-06
-1.05348e-06
1.93948e-06
-9.67286e-07
1.98107e-06
-8.87767e-07
2.01923e-06
-8.14509e-07
2.05423e-06
-7.47097e-07
2.08634e-06
-6.85119e-07
2.11579e-06
-6.28179e-07
2.14279e-06
-5.75896e-07
2.16754e-06
-5.27919e-07
-4.83917e-07
2.19023e-06
2.52101e-08
-5.07249e-07
9.29825e-08
-1.34431e-06
1.9173e-07
-1.96973e-06
3.10576e-07
-2.40351e-06
4.40358e-07
-2.66996e-06
5.74088e-07
-2.79918e-06
7.0699e-07
-2.82429e-06
8.36062e-07
-2.77585e-06
9.59539e-07
-2.6787e-06
1.07646e-06
-2.55152e-06
1.18638e-06
-2.40767e-06
1.28916e-06
-2.25636e-06
1.38488e-06
-2.10376e-06
1.47373e-06
-1.95394e-06
1.556e-06
-1.80947e-06
1.63202e-06
-1.6719e-06
1.70216e-06
-1.54208e-06
1.76678e-06
-1.42039e-06
1.82625e-06
-1.30689e-06
1.88094e-06
-1.20143e-06
1.93119e-06
-1.10374e-06
1.97735e-06
-1.01344e-06
2.01972e-06
-9.30139e-07
2.05861e-06
-8.53393e-07
2.09428e-06
-7.82769e-07
2.127e-06
-7.17837e-07
2.157e-06
-6.58181e-07
2.18451e-06
-6.03405e-07
2.20973e-06
-5.5314e-07
-5.07037e-07
2.23285e-06
2.58611e-08
-5.3311e-07
9.53381e-08
-1.41378e-06
1.96419e-07
-2.07081e-06
3.17844e-07
-2.52493e-06
4.50185e-07
-2.8023e-06
5.86335e-07
-2.93533e-06
7.215e-07
-2.95945e-06
8.52699e-07
-2.90705e-06
9.78192e-07
-2.80419e-06
1.09704e-06
-2.67037e-06
1.20878e-06
-2.51942e-06
1.3133e-06
-2.36087e-06
1.41065e-06
-2.20112e-06
1.50104e-06
-2.04433e-06
1.58476e-06
-1.89318e-06
1.66212e-06
-1.74927e-06
1.7335e-06
-1.61346e-06
1.79928e-06
-1.48616e-06
1.85981e-06
-1.36742e-06
1.91549e-06
-1.2571e-06
1.96665e-06
-1.1549e-06
2.01363e-06
-1.06043e-06
2.05677e-06
-9.73273e-07
2.09635e-06
-8.92975e-07
2.13266e-06
-8.19081e-07
2.16597e-06
-7.51142e-07
2.19651e-06
-6.88721e-07
2.22451e-06
-6.31406e-07
2.25018e-06
-5.7881e-07
-5.3057e-07
2.27371e-06
2.64907e-08
-5.59601e-07
9.76071e-08
-1.4849e-06
2.00912e-07
-2.17412e-06
3.24772e-07
-2.64879e-06
4.5951e-07
-2.93704e-06
5.97918e-07
-3.07374e-06
7.35197e-07
-3.09673e-06
8.68393e-07
-3.04024e-06
9.9579e-07
-2.93159e-06
1.11646e-06
-2.79103e-06
1.22995e-06
-2.63291e-06
1.33612e-06
-2.46705e-06
1.43505e-06
-2.30004e-06
1.52692e-06
-2.1362e-06
1.61201e-06
-1.97828e-06
1.69067e-06
-1.82792e-06
1.76325e-06
-1.68604e-06
1.83013e-06
-1.55304e-06
1.89169e-06
-1.42899e-06
1.94831e-06
-1.31372e-06
2.00034e-06
-1.20692e-06
2.04812e-06
-1.10821e-06
2.09198e-06
-1.01714e-06
2.13224e-06
-9.33228e-07
2.16916e-06
-8.56007e-07
2.20303e-06
-7.85007e-07
2.23408e-06
-7.19775e-07
2.26255e-06
-6.59877e-07
2.28865e-06
-6.04911e-07
-5.54496e-07
2.31258e-06
2.70936e-08
-5.86694e-07
9.97703e-08
-1.55758e-06
2.05173e-07
-2.27952e-06
3.31305e-07
-2.77492e-06
4.68264e-07
-3.074e-06
6.08755e-07
-3.21423e-06
7.47989e-07
-3.23597e-06
8.83042e-07
-3.1753e-06
1.01222e-06
-3.06077e-06
1.13461e-06
-2.91342e-06
1.24974e-06
-2.74805e-06
1.35749e-06
-2.5748e-06
1.45791e-06
-2.40046e-06
1.55119e-06
-2.22948e-06
1.6376e-06
-2.0647e-06
1.71749e-06
-1.90781e-06
1.79121e-06
-1.75976e-06
1.85915e-06
-1.62098e-06
1.92169e-06
-1.49153e-06
1.9792e-06
-1.37123e-06
2.03205e-06
-1.25978e-06
2.08059e-06
-1.15675e-06
2.12515e-06
-1.0617e-06
2.16604e-06
-9.74114e-07
2.20354e-06
-8.93513e-07
2.23794e-06
-8.19404e-07
2.26948e-06
-7.51313e-07
2.29839e-06
-6.88791e-07
2.3249e-06
-6.31416e-07
-5.78791e-07
2.34919e-06
2.76642e-08
-6.14359e-07
1.01808e-07
-1.63172e-06
2.09163e-07
-2.38687e-06
3.37389e-07
-2.90315e-06
4.76374e-07
-3.21298e-06
6.18762e-07
-3.35662e-06
7.59781e-07
-3.37699e-06
8.96543e-07
-3.31206e-06
1.02738e-06
-3.1916e-06
1.15136e-06
-3.0374e-06
1.26804e-06
-2.86473e-06
1.37727e-06
-2.68403e-06
1.47909e-06
-2.50228e-06
1.5737e-06
-2.32408e-06
1.66136e-06
-2.15235e-06
1.7424e-06
-1.98885e-06
1.8172e-06
-1.83456e-06
1.88613e-06
-1.68991e-06
1.94959e-06
-1.55498e-06
2.00794e-06
-1.42959e-06
2.06157e-06
-1.3134e-06
2.11082e-06
-1.206e-06
2.15603e-06
-1.1069e-06
2.19751e-06
-1.01559e-06
2.23556e-06
-9.31561e-07
2.27045e-06
-8.54295e-07
2.30244e-06
-7.83304e-07
2.33176e-06
-7.18118e-07
2.35865e-06
-6.58299e-07
-6.03431e-07
2.38329e-06
2.81966e-08
-6.42555e-07
1.037e-07
-1.70722e-06
2.12845e-07
-2.49602e-06
3.42967e-07
-3.03327e-06
4.83771e-07
-3.35379e-06
6.27856e-07
-3.5007e-06
7.70481e-07
-3.51961e-06
9.08792e-07
-3.45037e-06
1.04114e-06
-3.32395e-06
1.1666e-06
-3.16286e-06
1.28471e-06
-2.98284e-06
1.39531e-06
-2.79463e-06
1.49844e-06
-2.60541e-06
1.59427e-06
-2.41992e-06
1.68309e-06
-2.24117e-06
1.76521e-06
-2.07098e-06
1.84101e-06
-1.91036e-06
1.91087e-06
-1.75977e-06
1.97518e-06
-1.61929e-06
2.03431e-06
-1.48872e-06
2.08866e-06
-1.36775e-06
2.13856e-06
-1.25591e-06
2.18437e-06
-1.15271e-06
2.22639e-06
-1.05762e-06
2.26494e-06
-9.70108e-07
2.30028e-06
-8.89641e-07
2.33269e-06
-8.15709e-07
2.36239e-06
-7.47822e-07
2.38962e-06
-6.85525e-07
-6.28385e-07
2.41457e-06
2.8685e-08
-6.7124e-07
1.05426e-07
-1.78397e-06
2.1618e-07
-2.60677e-06
3.47985e-07