/*--------------------------------*- C++ -*----------------------------------*\
| =========                 |                                                 |
| \\      /  F ield         | OpenFOAM: The Open Source CFD Toolbox           |
|  \\    /   O peration     | Version:  2312                                  |
|   \\  /    A nd           | Website:  www.openfoam.com                      |
|    \\/     M anipulation  |                                                 |
\*---------------------------------------------------------------------------*/
FoamFile
{
    version     2.0;
    format      ascii;
    arch        "LSB;label=32;scalar=64";
    class       volScalarField;
    location    "20000";
    object      Pk;
}
// * * * * * * * * * * * * * * * * * * * * * * * * * * * * * * * * * * * * * //

dimensions      [0 2 -3 0 0 0 0];

internalField   nonuniform List<scalar> 
29400
(
27.372
48.6841
57.7249
63.3858
68.9735
73.4192
76.799
79.1497
80.709
81.6886
82.2409
82.4827
82.5028
82.3691
82.1318
81.8286
81.4862
81.1245
80.7569
80.3909
80.0319
79.6841
79.3511
79.0353
78.7375
78.4584
78.1982
77.958
77.7305
77.5172
0.107875
0.346621
0.672452
0.980208
1.30022
1.61511
1.90225
2.15042
2.36092
2.53801
2.68609
2.80938
2.91171
2.99654
3.06688
3.12526
3.17378
3.21424
3.24801
3.27604
3.29915
3.31814
3.33369
3.3464
3.35677
3.36522
3.37213
3.37776
3.38245
3.3869
0.660598
1.79804
3.28163
4.69612
6.11467
7.49413
8.73641
9.80953
10.7306
11.5163
12.1825
12.745
13.2187
13.6172
13.9528
14.2359
14.4751
14.6783
14.8504
14.9951
15.1164
15.2181
15.3031
15.374
15.4334
15.4834
15.5255
15.5613
15.5921
15.621
1.74075
4.55285
8.0783
10.9047
13.6084
16.2032
18.6163
20.819
22.8049
24.5737
26.1322
27.4937
28.6758
29.6981
30.5803
31.3412
31.9977
32.5664
33.0525
33.464
33.8142
34.1145
34.3713
34.5915
34.7814
34.946
35.0894
35.2151
35.3251
35.4248
0.915957
6.46504
12.7674
16.4157
19.4076
22.1245
24.7214
27.2568
29.7215
32.0806
34.3009
36.3587
38.241
39.9437
41.4706
42.831
44.0378
45.1059
46.05
46.8833
47.6191
48.2697
48.6991
49.0438
49.3534
49.632
49.8832
50.1102
50.3146
50.5031
0.102931
2.09813
10.0528
15.196
18.7934
21.2547
23.5515
25.8148
28.0454
30.2136
32.2929
34.2645
36.1166
37.8433
39.4431
40.9182
42.2734
43.5153
44.6514
45.6891
46.636
47.4998
48.2873
49.0048
49.6589
50.2553
50.7997
51.2976
51.7498
52.1659
4.10945
0.35084
0.0781118
0.848531
2.83039
4.34907
5.69066
7.0222
8.41032
9.87462
11.4131
13.0127
14.655
16.3199
17.9873
19.639
21.2593
22.8352
24.3563
25.8153
27.2063
28.5265
29.7735
30.9461
32.045
33.0727
34.0316
34.9263
35.7538
36.5134
6.25047
4.76784
2.31996
0.0914244
0.169077
0.262909
0.355472
0.434417
0.498019
0.54733
0.584133
0.610807
0.629522
0.642045
0.649897
0.654294
0.656257
0.656423
0.655393
0.653595
0.651083
0.648095
0.645042
0.641822
0.638088
0.633855
0.629102
0.622884
0.620464
0.619495
6.89269
6.6827
6.63409
6.93576
7.31681
8.09223
9.09885
10.2371
11.4435
12.6705
13.8806
15.0448
16.1418
17.1566
18.0804
18.9098
19.645
20.2897
20.8495
21.3314
21.7429
22.0923
22.387
22.2288
21.8548
21.4589
21.05
20.634
20.2207
19.8116
6.97703
7.46146
8.04218
8.98032
10.3229
12.0457
14.1081
16.4504
19.0083
21.7159
24.5099
27.3326
30.1332
32.8695
35.5084
38.0258
40.4057
42.6388
44.7213
46.6538
48.4395
50.0845
51.5959
52.979
54.2428
55.396
56.4472
57.403
58.2732
59.0408
6.70006
7.61508
8.53102
9.86417
11.6969
14.0341
16.8348
20.0374
23.5697
27.352
31.3029
35.3431
39.4003
43.4113
47.3253
51.1031
54.7166
58.147
61.3831
64.42
67.2576
69.8988
72.3497
74.6183
76.7135
78.6449
80.4221
82.0539
83.55
84.8922
6.25535
7.49264
8.66926
10.3338
12.601
15.4928
18.9761
22.9885
27.4481
32.2585
37.317
42.5201
47.771
52.9855
58.0952
63.0466
67.8003
72.3287
76.6146
80.6491
84.4293
87.9575
91.2401
94.287
97.1072
99.7122
102.115
104.326
106.355
108.18
5.79466
7.2855
8.71105
10.7012
13.4084
16.872
21.069
25.9347
31.375
37.2726
43.4981
49.9214
56.4164
62.8749
69.2099
75.3528
81.2523
86.872
92.1882
97.1906
101.875
106.245
110.308
114.075
117.56
120.779
123.747
126.477
128.982
131.237
5.38218
7.07745
8.75057
11.0753
14.2454
18.3235
23.2987
29.101
35.6207
42.7128
50.2122
57.9498
65.7718
73.5477
81.1703
88.5537
95.6344
102.369
108.73
114.702
120.282
125.476
130.296
134.757
138.878
142.678
146.176
149.39
152.332
154.978
5.03415
6.89729
8.81376
11.4848
15.1489
19.8948
25.7213
32.5526
40.2589
48.66
57.551
66.719
75.9785
85.1733
94.1715
102.867
111.185
119.075
126.505
133.456
139.932
145.945
151.514
156.658
161.398
165.758
169.764
173.436
176.79
179.802
4.74767
6.74813
8.90411
11.9333
16.1224
21.5916
28.3516
36.3156
45.3289
55.1651
65.5706
76.2833
87.0911
97.8051
108.262
118.334
127.941
137.023
145.54
153.472
164.178
174.89
184.53
193.147
200.81
207.6
213.601
218.891
223.538
225.85
4.5123
6.62605
9.01938
12.4207
17.1709
23.4246
31.2032
40.4056
50.8459
62.2395
74.279
86.6473
106.734
130.724
155.579
180.553
205.015
228.42
250.383
270.685
289.236
306.033
321.136
334.641
346.669
357.349
366.812
375.177
382.542
386.659
4.31743
6.52649
9.15749
12.9469
18.2958
25.3965
34.2804
44.8272
63.6654
87.1808
114.983
146.497
180.813
216.9
253.692
290.197
325.593
349.385
370.146
389.343
407.053
423.356
438.335
452.079
464.671
476.196
486.737
496.356
505.089
512.905
4.1548
6.44602
9.31669
13.5111
19.9843
32.8685
50.6321
74.0517
103.47
138.817
179.58
217.362
248.153
278.052
306.695
333.835
359.332
383.11
405.163
425.532
444.288
461.521
477.323
491.795
505.032
517.129
528.178
538.246
547.37
555.532
4.01832
6.38235
9.49522
17.2425
30.8818
50.2294
76.6139
108.598
138.594
170.873
204.385
238.156
271.38
303.47
334.031
362.824
389.737
414.735
437.841
459.121
478.665
496.578
512.968
527.947
541.623
554.1
565.48
575.831
585.19
593.557
3.90349
6.33389
11.4435
24.6464
43.8646
63.7887
88.6225
117.988
150.877
186.065
222.325
258.589
294.015
328.002
360.171
390.317
418.359
444.299
468.194
490.132
510.224
528.589
545.353
560.639
574.567
587.249
598.797
609.281
618.736
627.182
3.80687
6.29918
15.6438
30.6764
46.6187
68.2574
95.5097
127.613
163.361
201.324
240.129
278.631
315.963
351.537
385.011
416.221
445.126
471.759
496.202
518.569
538.988
557.599
574.541
589.952
603.963
616.695
628.268
638.753
648.183
656.597
3.72564
6.27685
20.1862
31.9222
49.2806
72.9144
102.628
137.457
175.978
216.547
257.663
298.123
337.052
373.901
408.38
440.376
469.883
496.961
521.719
544.291
564.828
583.49
600.431
615.802
629.745
642.39
653.861
664.233
673.534
681.822
3.65735
6.37569
20.5924
33.2291
52.0607
77.7436
109.944
147.46
188.631
231.591
274.744
316.851
357.052
394.865
430.064
462.579
492.433
519.713
544.553
567.114
587.571
606.101
622.875
638.057
651.797
664.232
675.492
685.65
694.73
702.813
3.59972
8.20459
21.0229
34.5983
54.9523
82.7295
117.417
157.545
201.198
246.287
291.177
334.595
375.741
414.222
449.871
482.646
512.594
539.835
564.532
586.877
607.067
625.3
641.759
656.619
670.036
682.153
693.104
702.959
711.738
719.545
3.55058
10.0194
21.4081
36.0283
57.9483
87.8514
125.001
167.624
213.55
260.47
306.783
351.168
392.949
431.827
467.665
500.436
530.224
557.187
581.528
603.468
623.226
641.012
657.025
671.443
684.43
696.133
706.687
716.16
724.566
732.032
3.50831
11.7722
21.7784
37.5174
61.0407
93.0859
132.642
177.611
225.564
274
321.436
366.467
408.63
447.666
483.43
515.931
545.309
571.773
595.563
616.925
636.097
653.302
668.743
682.607
695.062
706.257
716.33
725.344
733.309
740.371
3.89888
12.6948
22.1801
39.0624
64.2203
98.4072
140.287
187.424
237.149
286.832
333.262
321.165
315.999
318.247
327.179
341.316
359.03
378.813
399.432
419.906
439.563
457.92
474.747
489.893
503.387
515.251
525.634
534.584
542.187
546.707
4.39931
12.8103
22.612
40.6597
67.477
103.788
147.889
197.023
245.864
206.33
174.447
198.151
220.132
240.105
258.058
274.096
288.37
301.049
312.302
322.288
331.155
339.037
346.052
352.304
357.884
362.871
367.336
371.305
374.774
377.842
4.74821
12.9658
23.0743
42.3059
70.8001
109.204
155.433
176.143
129.894
156.986
183.13
207.507
229.777
249.864
267.829
283.807
297.969
310.5
321.579
331.379
340.052
347.74
354.563
360.629
366.032
370.85
375.156
378.972
382.29
385.224
4.91464
13.1637
23.569
43.9975
74.1796
114.649
135.881
108.443
136.888
165.041
191.76
216.469
238.921
259.075
277.02
292.916
306.957
319.34
330.26
339.894
348.403
355.929
362.598
368.519
373.784
378.474
382.66
386.361
389.562
392.396
4.8746
13.4061
24.0981
45.7313
77.6121
114.646
85.6949
114.376
143.935
172.791
199.966
224.93
247.477
267.611
285.462
301.219
315.096
327.305
338.049
347.511
355.856
363.229
369.755
375.543
380.687
385.267
389.352
392.955
396.057
398.809
4.61796
13.6942
24.6635
47.5054
81.1151
63.0355
90.3885
120.316
150.758
180.205
207.715
232.812
255.348
275.378
293.069
308.635
322.308
334.313
344.858
354.133
362.304
369.517
375.897
381.552
386.576
391.048
395.035
398.543
401.55
404.227
4.15543
14.0246
25.2678
49.3231
57.4896
66.4269
95.1197
126.12
157.33
187.241
214.959
240.078
262.512
282.365
299.837
315.167
328.602
340.376
350.705
359.778
367.765
374.811
381.041
386.561
391.464
395.828
399.717
403.131
406.044
408.648
3.52411
13.864
25.9157
51.1992
44.4543
69.8598
99.7968
131.773
163.625
193.867
221.674
246.714
268.964
288.576
305.781
320.838
334.008
345.532
355.629
364.492
372.288
379.162
385.239
390.624
395.406
399.661
403.452
406.772
409.591
412.125
3.30583
11.5337
26.6141
31.1475
46.6343
73.3183
104.412
137.249
169.612
200.057
227.842
252.713
274.71
294.027
310.924
325.68
338.564
349.823
359.678
368.323
375.925
382.627
388.55
393.798
398.46
402.608
406.301
409.527
412.252
414.72
3.29314
8.94673
23.0562
27.7151
48.8547
76.7718
108.943
142.522
175.266
205.794
233.456
258.079
279.763
298.741
315.3
329.731
342.313
353.296
362.904
371.329
378.734
385.262
391.032
396.145
400.687
404.729
408.325
411.455
414.089
416.491
3.28137
7.20463
14.6747
28.8654
51.1017
80.2123
113.368
147.567
180.566
211.068
238.518
262.826
284.146
302.749
318.943
333.033
345.302
356.005
365.362
373.563
380.773
387.128
392.745
397.724
402.147
406.083
409.58
412.615
415.156
417.495
3.26999
7.25946
14.6307
30.0395
53.3693
83.6244
117.667
152.365
185.501
215.877
243.038
266.971
287.886
306.086
321.897
335.633
347.583
358
367.105
375.084
382.097
388.28
393.746
398.591
402.894
406.723
410.121
413.058
415.507
417.785
3.2585
7.31461
15.1475
31.233
55.6499
86.9927
121.822
156.901
190.066
220.225
247.029
270.54
291.016
308.79
324.204
337.579
349.206
359.337
368.189
375.946
382.764
388.775
394.089
398.799
402.982
406.702
409.998
412.834
415.19
417.408
3.2467
7.36946
15.6959
32.4431
57.9342
90.3026
125.816
161.166
194.259
224.124
250.512
273.561
293.572
310.904
325.911
338.921
350.223
360.067
368.666
376.201
382.825
388.663
393.824
398.398
402.458
406.066
409.254
411.987
414.25
416.407
3.23461
7.42355
16.2136
33.6654
60.2124
93.5401
129.639
165.154
198.086
227.587
253.512
276.066
295.591
312.47
327.065
339.707
350.684
360.241
368.589
375.903
382.33
387.994
393
397.433
401.367
404.857
407.933
410.557
412.726
414.824
3.22228
7.47641
16.6552
34.8952
62.4746
96.6925
133.28
168.864
201.555
230.635
256.057
278.089
297.115
313.532
327.712
339.986
350.638
359.91
368.006
375.096
381.325
386.812
391.658
395.947
399.748
403.114
406.071
408.583
410.657
412.694
3.20977
7.52767
17.1001
36.1272
64.7109
99.7483
136.733
172.299
204.68
233.288
258.174
279.667
298.182
314.134
327.898
339.804
350.133
359.119
366.962
373.827
379.854
385.16
389.84
393.978
397.639
400.873
403.704
406.1
408.079
410.054
3.19715
7.57687
17.545
37.3556
66.9112
102.697
139.993
175.463
207.475
235.572
259.897
280.836
298.835
314.319
327.668
339.208
349.213
357.913
365.501
372.137
377.958
383.075
387.583
391.561
395.074
398.169
400.867
403.143
405.027
406.936
3.18445
7.62349
17.9867
38.574
69.0655
105.529
143.058
178.365
209.959
237.511
261.257
281.633
299.112
314.129
327.065
338.239
347.921
356.333
363.662
370.065
375.672
380.593
384.921
388.731
392.087
395.033
397.592
399.745
401.535
403.374
3.17168
7.6669
18.4223
39.7759
71.1637
108.237
145.928
181.016
212.15
239.133
262.285
282.093
299.052
313.605
326.129
336.939
346.296
354.417
361.484
367.646
373.033
377.75
381.887
385.52
388.709
391.498
393.912
395.941
397.637
399.399
3.15877
7.70623
18.848
40.9536
73.1968
110.813
148.606
183.426
214.069
240.464
263.014
282.253
298.693
312.784
324.899
335.345
344.377
352.204
359.001
364.917
370.074
374.577
378.515
381.96
384.973
387.598
389.862
391.765
393.364
395.038
3.14561
7.74046
19.2579
42.0989
75.157
113.251
151.094
185.609
215.738
241.533
263.477
282.146
298.072
311.704
323.412
333.495
342.198
349.726
356.248
361.908
366.827
371.107
374.835
378.084
380.913
383.367
385.476
387.25
388.747
390.321
3.13201
7.7687
19.647
43.2008
77.034
115.547
153.399
187.582
217.181
242.369
263.705
281.808
297.223
310.401
321.703
331.421
339.793
347.016
353.256
358.653
363.325
367.372
370.882
373.924
376.561
378.837
380.787
382.429
383.818
385.275
3.11768
7.79
20.0106
44.2464
78.8166
117.701
155.526
189.359
218.422
243
263.731
281.271
296.18
308.906
319.804
329.156
337.193
344.107
350.058
355.183
359.598
363.404
366.686
369.515
371.951
374.044
375.831
377.334
378.606
379.927
3.10222
7.80315
20.3448
45.2232
80.4944
119.712
157.481
190.96
219.487
243.457
263.585
280.568
294.976
307.253
317.747
326.732
334.43
341.028
346.683
351.528
355.68
359.236
362.282
364.89
367.12
369.024
370.641
372
373.143
374.308
3.08518
7.80679
20.6452
46.1206
82.0571
121.579
159.269
192.402
220.4
243.768
263.3
279.732
293.642
305.474
315.564
324.178
331.534
337.811
343.163
347.721
351.601
354.9
357.704
360.085
362.104
363.814
365.255
366.462
367.463
368.454
3.06606
7.79977
20.9076
46.9299
83.4939
123.296
160.901
193.705
221.187
243.963
262.909
278.795
292.212
303.598
313.283
321.525
328.533
334.484
339.527
343.793
347.395
350.432
352.988
355.137
356.94
358.45
359.712
360.759
361.607
362.407
3.04435
7.78105
21.1286
47.6443
84.7914
124.863
162.389
194.888
221.875
244.074
262.442
277.789
290.715
301.656
310.935
318.801
325.458
331.078
335.807
339.776
343.096
345.866
348.17
350.084
351.667
352.975
354.051
354.932
355.616
356.213
3.0195
7.74978
21.3059
48.2596
85.945
126.276
163.743
195.969
222.489
244.132
261.935
276.748
289.185
299.68
308.55
316.037
322.339
327.623
332.034
335.701
338.736
341.237
343.289
344.964
346.327
347.43
348.318
349.027
349.541
349.925
2.99086
7.7053
21.4384
48.7763
86.9731
127.495
164.947
196.97
223.057
244.169
261.422
275.707
287.655
297.702
306.159
313.262
319.205
324.149
328.24
331.604
334.352
336.583
338.381
339.819
340.961
341.859
342.558
343.093
343.434
343.601
2.95823
7.64724
21.5269
49.2026
87.8283
128.638
166.07
197.913
223.607
244.22
260.94
274.703
286.161
295.756
303.796
310.51
316.088
320.69
324.458
327.516
329.978
331.939
333.486
334.69
335.614
336.309
336.82
337.183
337.348
337.301
2.92148
7.57647
21.5726
49.5687
88.5651
129.65
167.15
198.811
224.171
244.325
260.53
273.776
284.743
293.881
301.495
307.815
313.024
317.279
320.721
323.474
325.65
327.345
328.643
329.617
330.327
330.825
331.153
331.346
331.34
331.083
2.87982
7.49551
21.6014
49.8482
89.2476
130.632
168.204
199.73
224.791
244.528
260.242
272.977
283.448
292.119
299.3
305.217
310.048
313.952
317.066
319.514
321.405
322.837
323.892
324.642
325.144
325.451
325.603
325.633
325.463
325.004
2.83293
7.40099
21.6206
50.0803
89.8943
131.67
169.299
200.717
225.534
244.89
260.134
272.363
282.332
290.526
297.261
302.762
307.208
310.753
313.534
315.675
317.284
318.456
319.274
319.805
320.109
320.233
320.217
320.093
319.766
319.117
2.78082
7.29401
21.6168
50.4064
90.6235
132.79
170.534
201.865
226.479
245.492
260.286
272.011
281.469
289.17
295.441
300.51
304.557
307.732
310.174
312.004
313.33
314.245
314.829
315.15
315.262
315.213
315.04
314.771
314.297
313.471
2.72361
7.17663
21.6052
50.8305
91.5482
134.145
172.056
203.314
227.751
246.445
260.803
272.024
280.956
288.143
293.927
298.543
302.17
304.96
307.05
308.561
309.599
310.256
310.609
310.723
310.651
310.437
310.116
309.712
309.101
308.112
2.66174
7.04964
21.5949
51.3911
92.721
135.888
174.046
205.263
229.52
247.903
261.83
272.542
280.929
287.572
292.838
296.969
300.15
302.531
304.249
305.425
306.164
306.556
306.676
306.585
306.333
305.96
305.499
304.968
304.229
303.089
2.59534
6.91249
21.5822
52.0961
94.3995
138.337
176.664
207.939
232.008
250.075
263.564
273.752
281.567
287.63
292.336
295.944
298.642
300.582
301.9
302.716
303.136
303.247
303.123
302.821
302.387
301.857
301.26
300.606
299.744
298.464
2.52246
6.75908
21.5588
52.9483
96.6723
141.449
180.36
211.579
235.491
253.23
266.259
275.9
283.11
288.548
292.644
295.68
297.849
299.304
300.182
300.604
300.674
300.48
300.091
299.562
298.936
298.244
297.509
296.731
295.747
294.335
2.43626
6.57059
20.2574
51.9744
99.2925
145.458
185.305
216.594
240.294
257.693
270.229
279.296
285.865
290.622
294.05
296.46
298.048
298.967
299.354
299.334
299.012
298.476
297.793
297.013
296.175
295.306
294.423
293.513
292.401
290.859
2.1865
5.67154
17.9365
48.132
98.289
150.151
191.589
223.237
246.78
263.803
275.824
284.302
290.195
294.21
296.906
298.636
299.591
299.917
299.755
299.238
298.476
297.555
296.538
295.474
294.395
293.326
292.275
291.217
289.966
288.291
1.81967
4.8096
15.9313
44.441
94.1346
146.734
193.214
230.628
255.2
271.88
283.38
291.283
296.487
299.693
301.605
302.618
302.894
302.567
301.791
300.718
299.466
298.118
296.729
295.341
293.986
292.684
291.437
290.206
288.798
286.987
1.51515
4.08603
14.2176
41.3842
90.0293
143.214
190.676
229.063
257.964
278.782
293.202
300.496
305.009
307.368
308.486
308.799
308.387
307.352
305.891
304.2
302.416
300.613
298.826
297.081
295.408
293.828
292.344
290.907
289.321
287.37
1.25552
3.47437
12.7334
38.5975
86.6989
140.475
188.511
227.608
257.117
278.592
293.895
304.643
311.798
316.306
317.813
317.448
316.341
314.557
312.36
310.005
307.677
305.437
303.257
301.128
299.081
297.156
295.37
293.676
291.886
289.797
1.03725
2.96137
11.4382
35.9839
83.5756
138.079
186.741
226.755
256.928
278.735
294.163
304.91
312.2
316.883
319.713
321.176
321.524
320.918
319.502
317.612
315.301
312.669
310.132
307.58
305.079
302.709
300.515
298.478
296.445
294.236
0.855528
2.53394
10.2988
33.4956
79.8531
135.797
185.031
226.051
257.175
279.656
295.423
306.148
313.194
317.541
319.974
321.004
320.966
320.11
318.651
316.767
314.619
312.312
309.91
307.457
305
302.571
300.201
297.901
295.689
293.415
0.705747
2.17949
9.28751
31.101
76.5698
132.823
183.193
225.246
257.41
280.664
296.95
307.951
315.082
319.331
321.491
322.123
321.649
320.376
318.55
316.351
313.928
311.372
308.751
306.109
303.49
300.922
298.436
296.038
293.753
291.453
0.583503
1.88668
8.3797
28.7576
73.2486
129.977
181.264
224.259
257.521
281.616
298.496
309.85
317.144
321.405
323.474
323.949
323.285
321.808
319.773
317.362
314.72
311.947
309.127
306.312
303.555
300.873
298.3
295.84
293.507
291.21
0.484779
1.64549
7.55716
26.4364
68.9325
126.293
179.211
222.999
257.432
282.46
300.042
311.861
319.425
323.799
325.869
326.272
325.493
323.88
321.706
319.159
316.393
313.499
310.588
307.704
304.885
302.148
299.522
297.016
294.642
292.33
0.405854
1.44698
6.81341
24.1848
64.2827
122.107
176.069
221.203
256.986
283.118
301.529
313.926
321.857
326.439
328.604
329.021
328.207
326.528
324.275
321.64
318.788
315.827
312.873
309.918
307.046
304.26
301.587
299.039
296.626
294.293
0.343326
1.28311
6.14023
22.0112
59.9901
117.258
172.15
218.911
256.183
283.577
302.937
316.013
324.399
329.271
331.599
332.091
331.296
329.599
327.304
324.597
321.715
318.72
315.712
312.708
309.78
306.947
304.231
301.644
299.196
296.843
0.294226
1.14725
5.52868
19.9133
55.5793
111.828
168.719
216.464
255.162
283.866
304.249
318.087
327.01
332.244
334.797
335.411
334.671
332.985
330.678
327.964
325.073
322.024
318.962
315.923
312.953
310.078
307.325
304.702
302.221
299.845
0.256004
1.03411
4.97417
17.9049
51.0838
105.671
164.025
213.398
253.671
283.87
305.397
320.101
329.647
335.322
338.165
338.951
338.298
336.64
334.344
331.645
328.732
325.659
322.561
319.482
316.473
313.56
310.769
308.111
305.596
303.194
0.226468
0.939589
4.47464
16.0068
46.5585
99.7942
158.36
209.805
251.689
283.54
306.337
322.014
332.275
338.468
341.669
342.69
342.18
340.585
338.354
335.638
332.711
329.625
326.492
323.37
320.315
317.357
314.523
311.823
309.27
306.836
0.203735
0.860414
4.02805
14.2305
42.0419
93.5189
153.164
206.217
249.501
282.969
307.096
323.831
334.878
341.653
345.257
346.55
346.214
344.711
342.539
339.851
336.916
333.81
330.644
327.483
324.386
321.384
318.506
315.763
313.169
310.698
0.186206
0.793856
3.6319
12.592
37.6061
86.9222
146.325
201.21
246.599
281.95
307.608
325.533
337.461
344.891
348.958
350.567
350.438
349.059
346.95
344.291
341.366
338.241
335.043
331.842
328.699
325.65
322.725
319.936
317.297
314.785
0.172618
0.737806
3.28351
11.1013
33.337
79.5593
139.969
195.701
243.17
280.516
307.865
327.103
340.02
348.18
352.775
354.75
354.865
353.642
351.621
348.994
346.075
342.934
339.703
336.459
333.268
330.169
327.191
324.352
321.663
319.105
0.162083
0.690833
2.98034
9.76668
29.308
71.6826
132.38
190.208
239.268
278.707
307.879
328.539
342.548
351.515
356.706
359.1
359.502
358.463
356.551
353.971
351.067
347.912
344.648
341.358
338.115
334.959
331.924
329.027
326.281
323.668
0.153996
0.651929
2.71962
8.59003
25.5788
64.2934
123.403
182.882
234.329
276.165
307.474
329.75
344.993
354.873
360.744
363.623
364.358
363.541
361.763
359.249
356.37
353.207
349.911
346.575
343.274
340.056
336.957
333.995
331.184
328.51
0.147875
0.620213
2.49833
7.56343
22.1651
56.9973
113.359
175.824
228.983
273.041
306.622
330.673
347.307
358.229
364.888
368.329
369.457
368.904
367.292
364.865
362.026
358.862
355.538
352.153
348.792
345.506
342.335
339.301
336.421
333.68
0.143265
0.594714
2.31322
6.68155
19.1068
49.9298
103.597
166.765
223.279
269.331
305.325
331.315
349.497
361.598
369.158
373.249
374.836
374.592
373.179
370.861
368.076
364.919
361.57
358.137
354.715
351.358
348.111
344.998
342.039
339.219
0.139758
0.574461
2.16065
5.93488
16.4116
43.2193
93.4026
156.031
215.421
264.424
303.232
331.526
351.508
364.991
373.574
378.418
380.534
380.647
379.465
377.277
374.559
371.416
368.043
364.562
361.074
357.641
354.313
351.117
348.072
345.167
0.137089
0.558788
2.03732
5.31239
14.0773
36.9938
82.9746
145.258
205.686
258.286
300.234
331.231
353.306
368.38
378.13
383.832
386.551
387.073
386.158
384.125
381.487
378.364
374.969
371.435
367.875
364.357
360.937
357.648
354.51
351.514
0.135146
0.547238
1.94036
4.80256
12.0914
31.3323
72.5182
134.019
196.146
251.327
296.543
330.517
354.923
371.781
382.842
389.518
392.926
393.919
393.317
391.475
388.945
385.854
382.44
378.853
375.216
371.606
368.086
364.69
361.447
358.349
0.13392
0.53941
1.86697
4.39375
10.4389
26.3143
62.2215
120.907
185.878
242.889
291.628
329.038
356.159
375.079
387.665
395.47
399.685
401.237
401.007
399.399
397.004
393.958
390.532
386.89
383.171
379.462
375.833
372.325
368.968
365.758
0.133391
0.534939
1.81462
4.07394
9.09306
21.9885
52.4218
105.912
172.323
232.293
284.803
326.191
356.594
378.012
392.463
401.614
406.809
409.041
409.272
407.942
405.698
402.71
399.277
395.581
391.776
387.961
384.213
380.581
377.098
373.765
0.133495
0.533489
1.781
3.83202
8.02336
18.3807
43.507
91.4988
156.849
220.187
276.295
321.924
356.127
380.516
397.199
407.953
414.325
417.396
418.182
417.218
415.149
412.248
408.834
405.102
401.222
397.305
393.437
389.673
386.057
382.59
0.134055
0.534399
1.76288
3.65692
7.19509
15.4509
35.6611
77.2506
138.948
206.651
266.239
316.278
354.755
382.585
401.884
414.564
422.328
426.399
427.852
427.346
425.525
422.763
419.403
415.658
411.716
407.7
403.709
399.808
396.045
392.427
0.134913
0.537378
1.757
3.53861
6.57403
13.1478
29.0737
63.8499
121.162
188.939
253.997
308.454
351.945
383.866
406.326
421.373
430.827
436.103
438.371
438.41
436.932
434.369
431.102
427.366
423.373
419.26
415.141
411.088
407.16
403.372
0.135958
0.541635
1.75957
3.46901
6.12834
11.3913
23.7197
51.7394
102.768
170.117
238.671
297.866
346.981
383.87
410.274
428.281
439.843
446.618
449.89
450.597
449.566
447.277
444.16
440.473
436.453
432.256
428.011
423.802
419.7
415.724
0.137043
0.546486
1.76916
3.43911
5.82893
10.1004
19.5334
41.3085
84.5042
148.422
220.021
284.201
339.264
382.111
413.376
435.061
449.318
457.976
462.539
464.091
463.635
461.669
458.768
455.163
451.13
446.848
442.471
438.098
433.811
429.638
0.138088
0.551591
1.78276
3.43725
5.63955
9.15388
16.2534
32.4079
66.6738
124.017
194.953
265.389
327.131
377.607
415.23
441.863
459.823
471.1
477.49
480.236
480.575
479.033
476.399
472.878
468.805
464.397
459.838
455.248
450.724
446.301
0.139562
0.557672
1.80282
3.45644
5.56278
8.57344
14.0171
25.8104
51.7699
100.288
168.745
244.13
311.165
369.094
413.697
446.167
468.632
483.238
491.959
496.291
497.662
496.729
494.433
491.026
486.915
482.365
477.596
472.753
467.95
463.232
0.141243
0.563626
1.82182
3.481
5.5558
8.27198
12.6555
21.4276
40.7135
79.6548
141.964
218.535
290.912
356.199
408.786
448.088
475.918
494.537
506.083
512.362
515
514.832
512.963
509.702
505.551
500.834
495.815
490.671
485.539
480.477
0.142827
0.569116
1.83929
3.51548
5.58396
8.13503
11.8445
18.577
32.8763
62.9764
116.527
190.889
267.561
339.064
399.958
447.029
481.196
504.598
519.631
528.307
532.558
533.338
531.963
528.876
524.683
519.773
514.464
508.971
503.456
497.995
0.14427
0.573998
1.85458
3.54822
5.62204
8.09885
11.3902
16.7702
27.5019
50.2813
94.1263
161.405
242.388
318.619
387.453
442.886
484.168
513.088
532.237
543.87
550.063
552.14
551.383
548.585
544.431
539.372
533.785
527.926
521.991
516.079
0.145553
0.578361
1.8685
3.57846
5.65535
8.11697
11.1637
15.6641
23.9236
41.1013
75.7707
134.654
212.49
294.857
370.893
435.176
484.477
519.855
543.868
559.032
567.625
571.299
571.511
569.222
565.24
560.099
554.249
547.998
541.585
535.144
0.146665
0.582096
1.88052
3.60805
5.70313
8.16221
11.079
15.0193
21.5921
34.6373
61.5243
111.126
184.375
270.918
352.761
424.788
482.363
524.772
554.289
573.548
584.994
590.597
592.062
590.5
586.864
581.746
575.679
569.032
562.097
555.054
0.147711
0.585261
1.88818
3.62435
5.74785
8.21254
11.0765
14.6761
20.1194
30.1893
50.7798
90.9281
156.578
241.198
329.958
409.616
476.517
527.017
562.969
587.075
602.004
609.936
613.041
612.335
609.249
604.253
598
590.946
583.451
575.752
0.148832
0.588452
1.89482
3.63474
5.76957
8.25964
11.1174
14.5263
19.2353
27.2238
42.9959
74.5978
130.731
211.365
301.458
389.627
465.825
525.67
569.196
599.061
618.207
629.05
634.113
634.535
632.061
627.237
620.837
613.405
605.37
597.025
0.150015
0.591838
1.9018
3.65178
5.80179
8.31528
11.1812
14.4949
18.7417
25.3075
37.5453
62.0883
108.403
181.455
272.851
368.59
452.301
521.887
573.712
610.112
634.079
648.286
655.599
657.387
655.671
651.106
644.611
636.83
628.277
619.303
0.151247
0.595202
1.91008
3.66714
5.82992
8.36522
11.2525
14.5296
18.5008
24.1166
33.8299
52.8567
90.0349
153.885
242.441
342.165
433.781
513.552
575.263
619.57
649.345
667.587
677.55
680.96
680.153
675.916
669.365
661.267
652.238
642.681
0.152565
0.598906
1.91814
3.6811
5.85418
8.40864
11.322
14.5987
18.4203
23.4196
31.3592
46.2075
75.5147
129.138
211.884
312.429
413.236
501.555
574.13
627.331
663.848
686.856
699.999
705.342
705.605
701.756
695.152
686.715
677.184
667.014
0.153948
0.602713
1.92608
3.6942
5.87576
8.44645
11.3859
14.682
18.4373
23.0569
29.7815
41.559
64.4673
108.053
180.416
277.426
385.666
483.625
568.249
631.886
676.533
705.425
722.604
730.324
731.872
728.514
721.88
713.064
702.94
692.036
0.155396
0.606601
1.93388
3.70651
5.895
8.47897
11.4421
14.7665
18.5063
22.9102
28.8318
38.4143
56.4049
91.2853
153.249
244.489
354.277
461.492
557.468
632.767
686.819
722.759
744.632
755.53
758.642
756.019
749.502
740.353
729.604
717.878
0.156909
0.610541
1.9414
3.71785
5.91185
8.50626
11.4893
14.8434
18.5968
22.8943
28.3083
36.3614
50.6488
78.2017
129.506
211.843
319.193
434.57
541.734
629.971
695.013
739.25
766.867
781.529
786.782
785.186
778.891
769.392
757.918
745.216
0.158482
0.61452
1.94861
3.72826
5.92654
8.52891
11.5277
14.9088
18.6892
22.9491
28.0635
35.0878
46.6779
68.3939
109.869
181.631
284.683
406.58
522.593
623.732
701.03
754.961
789.456
808.636
816.552
816.285
810.311
800.432
788.103
774.217
0.160106
0.618547
1.9556
3.73798
5.93964
8.54808
11.559
14.9629
18.7741
23.0365
27.9914
34.3514
44.0416
61.3124
94.3269
154.516
249.041
369.332
497.315
611.408
703.43
769.194
812.171
836.886
848.149
849.571
844.099
833.815
820.449
805.092
0.161777
0.622648
1.96252
3.74739
5.95196
8.56529
11.5857
15.0081
18.8491
23.1349
28.0219
33.9782
42.3734
56.386
82.6216
131.925
215.276
332.518
466.128
592.274
700.269
780.206
833.75
865.451
881.106
884.62
879.987
869.322
854.728
837.584
0.1635
0.626859
1.96954
3.75683
5.96414
8.5819
11.6104
15.0482
18.916
23.2343
28.1101
33.8426
41.3854
53.0578
74.0135
113.688
184.613
294.389
430.301
567.189
690.45
786.425
852.598
892.991
914.346
920.543
917.133
906.164
890.257
871.141
0.165291
0.631192
1.97667
3.76639
5.97641
8.59836
11.634
15.0848
18.9758
23.3287
28.2244
33.8534
40.8676
50.9166
67.9043
99.5298
157.962
254.263
386.05
536.71
674.045
787.556
868.13
918.926
947.045
956.89
954.989
943.862
926.678
905.545
0.16716
0.635637
1.98384
3.77594
5.98852
8.6144
11.6564
15.1181
19.0284
23.4129
28.3422
33.9427
40.6566
49.6255
63.7474
89.111
136.652
219.868
344.048
495.933
649.41
782.264
880.331
943.87
980.225
994.542
994.533
983.312
964.732
941.362
0.169113
0.640164
1.99093
3.78521
6.00008
8.62955
11.6771
15.1479
19.0738
23.4853
28.4514
34.0633
40.6274
48.918
61.0327
81.6356
119.961
189.945
303.044
454.724
618.841
770.685
889.026
967.988
1014.46
1034.28
1036.52
1025.08
1004.7
978.541
0.171148
0.644739
1.9978
3.79399
6.01075
8.64331
11.6957
15.174
19.1122
23.5455
28.5457
34.1891
40.6966
48.5887
59.3551
76.4528
107.301
164.717
263.659
409.619
580.071
749.574
890.486
988.796
1048.65
1075.84
1081.05
1069.26
1046.45
1016.6
0.173259
0.649329
2.00436
3.80215
6.02032
8.65546
11.712
15.1964
19.1444
23.5946
28.6236
34.3044
40.8106
48.4932
58.3951
73.0097
98.0556
144.415
228.074
360.647
534.754
719.04
882.718
1004.3
1081.37
1118.35
1127.45
1115.46
1089.72
1055.22
0.175441
0.653904
2.01052
3.80959
6.02869
8.66592
11.7259
15.2155
19.1712
23.6345
28.6863
34.4024
40.9336
48.5271
57.9147