/*--------------------------------*- C++ -*----------------------------------*\
| =========                 |                                                 |
| \\      /  F ield         | OpenFOAM: The Open Source CFD Toolbox           |
|  \\    /   O peration     | Version:  2312                                  |
|   \\  /    A nd           | Website:  www.openfoam.com                      |
|    \\/     M anipulation  |                                                 |
\*---------------------------------------------------------------------------*/
FoamFile
{
    version     2.0;
    format      ascii;
    arch        "LSB;label=32;scalar=64";
    class       volScalarField;
    location    "20000";
    object      Pw;
}
// * * * * * * * * * * * * * * * * * * * * * * * * * * * * * * * * * * * * * //

dimensions      [0 0 -2 0 0 0 0];

internalField   nonuniform List<scalar> 
29400
(
8.99301e+06
3.64112e+07
8.4188e+07
1.44539e+08
2.15864e+08
2.90112e+08
3.63073e+08
4.31152e+08
4.92392e+08
5.46094e+08
5.92313e+08
6.31565e+08
6.64585e+08
6.92178e+08
7.15122e+08
7.34133e+08
7.49839e+08
7.6278e+08
7.73413e+08
7.82116e+08
7.89206e+08
7.94943e+08
7.99543e+08
8.03183e+08
8.06007e+08
8.0813e+08
8.09654e+08
8.10679e+08
8.11233e+08
8.13076e+08
5.31782e+06
1.9877e+07
4.58867e+07
7.85883e+07
1.16759e+08
1.57632e+08
1.98907e+08
2.38891e+08
2.76413e+08
3.10816e+08
3.41834e+08
3.69461e+08
3.93852e+08
4.15256e+08
4.33962e+08
4.50268e+08
4.64461e+08
4.76807e+08
4.87547e+08
4.96893e+08
5.05032e+08
5.12127e+08
5.18319e+08
5.23727e+08
5.28457e+08
5.32602e+08
5.3624e+08
5.39441e+08
5.42269e+08
5.44938e+08
2.56994e+06
8.54111e+06
1.98741e+07
3.36802e+07
4.96241e+07
6.71025e+07
8.53534e+07
1.03789e+08
1.2192e+08
1.39374e+08
1.559e+08
1.71345e+08
1.85631e+08
1.98742e+08
2.107e+08
2.21556e+08
2.31376e+08
2.40238e+08
2.48219e+08
2.55398e+08
2.61851e+08
2.67649e+08
2.7285e+08
2.77515e+08
2.81699e+08
2.85456e+08
2.88831e+08
2.91866e+08
2.94602e+08
2.97302e+08
1.2038e+06
3.26483e+06
7.55176e+06
1.19018e+07
1.67771e+07
2.21906e+07
2.80395e+07
3.42107e+07
4.05829e+07
4.70338e+07
5.34522e+07
5.97424e+07
6.58277e+07
7.165e+07
7.71688e+07
8.23594e+07
8.72099e+07
9.17188e+07
9.58925e+07
9.97434e+07
1.03287e+08
1.06539e+08
1.0952e+08
1.1225e+08
1.14745e+08
1.17025e+08
1.19105e+08
1.21002e+08
1.22732e+08
1.24513e+08
829233
1.71958e+06
3.88257e+06
5.13371e+06
6.32084e+06
7.59205e+06
8.99503e+06
1.05356e+07
1.22049e+07
1.39826e+07
1.58404e+07
1.7746e+07
1.96661e+07
2.15697e+07
2.343e+07
2.52255e+07
2.69405e+07
2.85649e+07
3.00928e+07
3.15221e+07
3.28534e+07
3.40889e+07
3.52349e+07
3.62958e+07
3.72754e+07
3.81783e+07
3.90089e+07
3.97725e+07
4.04733e+07
4.12448e+07
814860
1.48752e+06
3.22841e+06
3.85695e+06
4.26606e+06
4.61337e+06
4.98103e+06
5.38966e+06
5.84832e+06
6.35742e+06
6.91016e+06
7.4947e+06
8.09634e+06
8.69979e+06
9.29111e+06
9.85905e+06
1.03956e+07
1.08959e+07
1.13577e+07
1.1781e+07
1.2167e+07
1.2518e+07
1.28363e+07
1.31245e+07
1.33855e+07
1.36221e+07
1.38366e+07
1.40313e+07
1.42085e+07
1.44201e+07
791602
1.46967e+06
3.17209e+06
3.71084e+06
3.98374e+06
4.18137e+06
4.37244e+06
4.57874e+06
4.81082e+06
5.07136e+06
5.35662e+06
5.65843e+06
5.96616e+06
6.26871e+06
6.55623e+06
6.82122e+06
7.05899e+06
7.26751e+06
7.44694e+06
7.59896e+06
7.7262e+06
7.83172e+06
7.91864e+06
7.98986e+06
8.04805e+06
8.09556e+06
8.13437e+06
8.1661e+06
8.1925e+06
8.21646e+06
800300
1.44709e+06
3.12852e+06
3.68824e+06
3.97323e+06
4.17501e+06
4.36541e+06
4.56752e+06
4.79222e+06
5.04208e+06
5.31311e+06
5.59687e+06
5.88256e+06
6.15899e+06
6.41635e+06
6.64733e+06
6.84755e+06
7.01541e+06
7.15157e+06
7.25828e+06
7.33875e+06
7.39661e+06
7.43554e+06
7.459e+06
7.47005e+06
7.47139e+06
7.46533e+06
7.45371e+06
7.43834e+06
7.39895e+06
799180
1.41302e+06
3.06337e+06
3.63988e+06
3.93801e+06
4.14865e+06
4.34543e+06
4.55266e+06
4.78182e+06
5.03577e+06
5.31067e+06
5.59815e+06
5.88745e+06
6.16738e+06
6.42815e+06
6.66243e+06
6.86585e+06
7.03679e+06
7.17588e+06
7.28537e+06
7.36844e+06
7.42872e+06
7.46986e+06
7.49338e+06
7.50356e+06
7.504e+06
7.49704e+06
7.4845e+06
7.46814e+06
7.41561e+06
777344
1.37305e+06
2.98248e+06
3.57116e+06
3.881e+06
4.09941e+06
4.30137e+06
4.51237e+06
4.74457e+06
5.00122e+06
5.27867e+06
5.56871e+06
5.86067e+06
6.14345e+06
6.40729e+06
6.64493e+06
6.85196e+06
7.02674e+06
7.16987e+06
7.28354e+06
7.37087e+06
7.43541e+06
7.48075e+06
7.51027e+06
7.52711e+06
7.5339e+06
7.53292e+06
7.52598e+06
7.51479e+06
7.46146e+06
759366
1.33219e+06
2.89458e+06
3.49195e+06
3.8113e+06
4.0354e+06
4.24022e+06
4.4523e+06
4.68449e+06
4.94042e+06
5.21671e+06
5.50537e+06
5.79589e+06
6.07736e+06
6.34015e+06
6.57709e+06
6.78383e+06
6.95877e+06
7.10248e+06
7.2171e+06
7.30572e+06
7.37182e+06
7.41896e+06
7.45047e+06
7.46937e+06
7.47824e+06
7.47933e+06
7.47442e+06
7.46523e+06
7.41195e+06
744367
1.29115e+06
2.80339e+06
3.40718e+06
3.73478e+06
3.96345e+06
4.1699e+06
4.38163e+06
4.61213e+06
4.86542e+06
5.13841e+06
5.42334e+06
5.70993e+06
5.98746e+06
6.24651e+06
6.48003e+06
6.68379e+06
6.85621e+06
6.9979e+06
7.11097e+06
7.19851e+06
7.26391e+06
7.31067e+06
7.34206e+06
7.36106e+06
7.37021e+06
7.37173e+06
7.36736e+06
7.35878e+06
7.30595e+06
729512
1.25044e+06
2.71032e+06
3.31863e+06
3.65357e+06
3.88617e+06
4.09361e+06
4.30427e+06
4.53225e+06
4.78194e+06
5.05055e+06
5.33054e+06
5.61193e+06
5.88421e+06
6.13815e+06
6.36689e+06
6.5663e+06
6.7349e+06
6.87331e+06
6.98365e+06
7.06891e+06
7.13249e+06
7.17782e+06
7.20813e+06
7.22632e+06
7.23491e+06
7.23605e+06
7.23145e+06
7.2228e+06
7.17041e+06
715399
1.21031e+06
2.61584e+06
3.22674e+06
3.56818e+06
3.8042e+06
4.01218e+06
4.22125e+06
4.44617e+06
4.69168e+06
4.95527e+06
5.22967e+06
5.50512e+06
5.77137e+06
6.01942e+06
6.24259e+06
6.4369e+06
6.60094e+06
6.73535e+06
6.84226e+06
6.92463e+06
6.9858e+06
7.02916e+06
7.05787e+06
7.07477e+06
7.08234e+06
7.08269e+06
7.07749e+06
7.06839e+06
7.01639e+06
701985
1.1708e+06
2.52016e+06
3.13162e+06
3.47859e+06
3.71748e+06
3.92558e+06
4.13274e+06
4.35417e+06
4.59502e+06
4.85304e+06
5.12124e+06
5.39011e+06
5.64967e+06
5.89116e+06
6.10809e+06
6.29664e+06
6.45548e+06
6.58531e+06
6.68823e+06
6.76718e+06
6.82546e+06
6.86639e+06
6.89309e+06
6.90833e+06
6.91454e+06
6.91378e+06
6.90771e+06
6.89791e+06
6.84622e+06
689024
1.13194e+06
2.42346e+06
3.03322e+06
3.38468e+06
3.62594e+06
3.83373e+06
4.0385e+06
4.25598e+06
4.49161e+06
4.7434e+06
5.00462e+06
5.26603e+06
5.51791e+06
5.75176e+06
5.96133e+06
6.14295e+06
6.29542e+06
6.41949e+06
6.51731e+06
6.59179e+06
6.64618e+06
6.68376e+06
6.70757e+06
6.72036e+06
6.72448e+06
6.72195e+06
6.71439e+06
6.70333e+06
6.65162e+06
676370
1.09379e+06
2.32598e+06
2.93159e+06
3.28643e+06
3.52935e+06
3.73628e+06
3.93809e+06
4.1509e+06
4.38038e+06
4.62475e+06
4.87749e+06
5.12959e+06
5.37162e+06
5.59538e+06
5.7949e+06
5.96673e+06
6.1099e+06
6.22532e+06
6.31519e+06
6.38247e+06
6.43041e+06
6.4627e+06
6.48488e+06
6.49665e+06
6.50027e+06
6.49765e+06
6.49033e+06
6.47978e+06
6.43008e+06
663911
1.05637e+06
2.22798e+06
2.82689e+06
3.18368e+06
3.4274e+06
3.63268e+06
3.83055e+06
4.0373e+06
4.2587e+06
4.49297e+06
4.7337e+06
4.97223e+06
5.20878e+06
5.4273e+06
5.62217e+06
5.79023e+06
5.93044e+06
6.04374e+06
6.13238e+06
6.19928e+06
6.24761e+06
6.28048e+06
6.3008e+06
6.3111e+06
6.3136e+06
6.31014e+06
6.30222e+06
6.29126e+06
6.24237e+06
651550
1.01971e+06
2.12981e+06
2.71915e+06
3.07623e+06
3.31954e+06
3.52178e+06
3.7137e+06
3.91145e+06
4.1205e+06
4.3526e+06
4.59335e+06
4.8323e+06
5.06092e+06
5.27174e+06
5.45935e+06
5.62071e+06
5.75502e+06
5.86326e+06
5.94762e+06
6.01094e+06
6.05634e+06
6.08683e+06
6.10526e+06
6.1141e+06
6.11548e+06
6.11118e+06
6.10267e+06
6.09131e+06
6.04327e+06
639206
983862
2.03179e+06
2.60836e+06
2.96364e+06
3.2046e+06
3.40121e+06
3.58319e+06
3.77822e+06
3.99376e+06
4.2208e+06
4.45374e+06
4.68467e+06
4.90528e+06
5.10834e+06
5.28863e+06
5.44331e+06
5.57168e+06
5.67476e+06
5.75472e+06
5.81437e+06
5.85675e+06
5.88482e+06
5.90133e+06
5.90866e+06
5.9089e+06
5.90376e+06
5.89465e+06
5.88287e+06
5.83572e+06
626809
948825
1.93429e+06
2.49436e+06
2.84504e+06
3.08045e+06
3.26651e+06
3.45648e+06
3.65422e+06
3.86345e+06
4.08323e+06
4.3083e+06
4.53107e+06
4.74352e+06
4.93869e+06
5.11159e+06
5.25954e+06
5.38194e+06
5.47984e+06
5.55542e+06
5.61142e+06
5.65081e+06
5.67647e+06
5.69107e+06
5.69693e+06
5.69605e+06
5.69008e+06
5.68038e+06
5.66821e+06
5.622e+06
614294
914608
1.8377e+06
2.3774e+06
2.71875e+06
2.94739e+06
3.14533e+06
3.33325e+06
3.52561e+06
3.72828e+06
3.94062e+06
4.1577e+06
4.37224e+06
4.57649e+06
4.76378e+06
4.92935e+06
5.07064e+06
5.18716e+06
5.27998e+06
5.35125e+06
5.40368e+06
5.44015e+06
5.46348e+06
5.47624e+06
5.48069e+06
5.47874e+06
5.47199e+06
5.46175e+06
5.44922e+06
5.40402e+06
601605
881201
1.7424e+06
2.26255e+06
2.59423e+06
2.82693e+06
3.0223e+06
3.20593e+06
3.39263e+06
3.58856e+06
3.7934e+06
4.00247e+06
4.20879e+06
4.40491e+06
4.58441e+06
4.74275e+06
4.87751e+06
4.98828e+06
5.07616e+06
5.14326e+06
5.19224e+06
5.22592e+06
5.24703e+06
5.25806e+06
5.26118e+06
5.25826e+06
5.25081e+06
5.2401e+06
5.22728e+06
5.18317e+06
588692
848580
1.64875e+06
2.14734e+06
2.47329e+06
2.70364e+06
2.89575e+06
3.07467e+06
3.25548e+06
3.44461e+06
3.64194e+06
3.84307e+06
4.04127e+06
4.22939e+06
4.40126e+06
4.55255e+06
4.68097e+06
4.78619e+06
4.8693e+06
4.93241e+06
4.9781e+06
5.00914e+06
5.02817e+06
5.03759e+06
5.03951e+06
5.03571e+06
5.02766e+06
5.01656e+06
5.00353e+06
4.9606e+06
575504
816709
1.55707e+06
2.03225e+06
2.35086e+06
2.57772e+06
2.76584e+06
2.93969e+06
3.11449e+06
3.2968e+06
3.48671e+06
3.68001e+06
3.87024e+06
4.05054e+06
4.215e+06
4.35946e+06
4.48178e+06
4.58165e+06
4.66021e+06
4.71953e+06
4.76213e+06
4.7907e+06
4.8078e+06
4.81577e+06
4.81661e+06
4.81206e+06
4.80351e+06
4.79212e+06
4.77895e+06
4.73727e+06
561997
785539
1.46773e+06
1.91774e+06
2.22729e+06
2.44943e+06
2.63287e+06
2.80135e+06
2.97008e+06
3.14563e+06
3.32825e+06
3.51387e+06
3.69633e+06
3.86905e+06
4.02635e+06
4.16424e+06
4.28068e+06
4.37545e+06
4.44968e+06
4.50541e+06
4.54511e+06
4.5714e+06
4.58674e+06
4.5934e+06
4.59331e+06
4.58813e+06
4.57918e+06
4.56759e+06
4.55437e+06
4.51402e+06
548126
755000
1.38097e+06
1.8043e+06
2.103e+06
2.31918e+06
2.49727e+06
2.66016e+06
2.8228e+06
2.99171e+06
3.1672e+06
3.34536e+06
3.52033e+06
3.68577e+06
3.83621e+06
3.96782e+06
4.07869e+06
4.16863e+06
4.23879e+06
4.29116e+06
4.32818e+06
4.35237e+06
4.36612e+06
4.37161e+06
4.3707e+06
4.36498e+06
4.35573e+06
4.34402e+06
4.33081e+06
4.29184e+06
533858
725015
1.29698e+06
1.69242e+06
1.97851e+06
2.18749e+06
2.35964e+06
2.51676e+06
2.67336e+06
2.83578e+06
3.00436e+06
3.17535e+06
3.34314e+06
3.50165e+06
3.6456e+06
3.77132e+06
3.877e+06
3.96249e+06
4.02893e+06
4.07827e+06
4.11288e+06
4.1352e+06
4.14756e+06
4.15205e+06
4.15047e+06
4.14433e+06
4.13488e+06
4.12312e+06
4.10998e+06
4.07244e+06
519161
695507
1.21592e+06
1.5826e+06
1.85442e+06
2.05504e+06
2.22072e+06
2.37193e+06
2.52257e+06
2.67869e+06
2.84064e+06
3.00501e+06
3.16628e+06
3.3186e+06
3.45691e+06
3.57769e+06
3.67915e+06
3.76111e+06
3.82468e+06
3.87173e+06
3.90456e+06
3.92556e+06
3.93697e+06
3.94084e+06
3.93891e+06
3.93263e+06
3.9232e+06
3.9116e+06
3.89872e+06
3.86272e+06
504005
666403
1.13792e+06
1.4753e+06
1.73139e+06
1.92261e+06
2.08134e+06
2.22655e+06
2.37135e+06
2.52156e+06
2.67726e+06
2.83512e+06
2.99001e+06
3.13637e+06
3.26938e+06
3.38564e+06
3.4834e+06
3.56245e+06
3.6238e+06
3.66927e+06
3.70104e+06
3.7214e+06
3.73253e+06
3.73638e+06
3.73464e+06
3.72872e+06
3.71976e+06
3.70871e+06
3.69644e+06
3.66217e+06
488367
637637
1.06307e+06
1.37099e+06
1.61014e+06
1.79105e+06
1.94243e+06
2.0816e+06
2.22069e+06
2.36485e+06
2.51419e+06
2.66559e+06
2.8142e+06
2.95475e+06
3.08264e+06
3.19459e+06
3.28888e+06
3.36527e+06
3.4247e+06
3.46887e+06
3.49986e+06
3.51986e+06
3.53096e+06
3.53505e+06
3.53373e+06
3.52837e+06
3.52007e+06
3.50974e+06
3.49822e+06
3.46581e+06
472232
609148
991404
1.27008e+06
1.49137e+06
1.66122e+06
1.80492e+06
1.93789e+06
2.07106e+06
2.20917e+06
2.35223e+06
2.49726e+06
2.63964e+06
2.77441e+06
2.89722e+06
3.00491e+06
3.09584e+06
3.1697e+06
3.22737e+06
3.2704e+06
3.3008e+06
3.32062e+06
3.33187e+06
3.33635e+06
3.3356e+06
3.33094e+06
3.32342e+06
3.31393e+06
3.30326e+06
3.27279e+06
455596
580885
922935
1.17296e+06
1.37578e+06
1.53398e+06
1.66966e+06
1.79617e+06
1.9234e+06
2.05549e+06
2.19229e+06
2.33095e+06
2.46711e+06
2.59611e+06
2.71384e+06
2.81731e+06
2.9049e+06
2.97631e+06
3.03228e+06
3.07429e+06
3.10419e+06
3.12395e+06
3.13546e+06
3.14043e+06
3.14036e+06
3.13649e+06
3.12983e+06
3.12124e+06
3.1115e+06
3.08301e+06
438471
552811
857627
1.07992e+06
1.264e+06
1.41017e+06
1.53744e+06
1.65739e+06
1.77865e+06
1.90471e+06
2.03526e+06
2.16755e+06
2.2975e+06
2.42071e+06
2.53334e+06
2.63256e+06
2.7168e+06
2.78575e+06
2.84006e+06
2.88108e+06
2.91054e+06
2.9303e+06
2.94213e+06
2.94768e+06
2.94834e+06
2.94532e+06
2.93958e+06
2.93195e+06
2.92317e+06
2.89668e+06
420879
525032
795415
991216
1.15663e+06
1.29046e+06
1.40917e+06
1.52246e+06
1.63767e+06
1.75767e+06
1.88197e+06
2.00789e+06
2.1316e+06
2.24901e+06
2.3565e+06
2.45141e+06
2.53226e+06
2.5987e+06
2.65131e+06
2.69134e+06
2.72038e+06
2.74015e+06
2.75233e+06
2.75847e+06
2.75991e+06
2.75777e+06
2.75298e+06
2.74634e+06
2.73855e+06
2.71406e+06
402846
497446
736223
907028
1.0541e+06
1.17557e+06
1.28564e+06
1.39216e+06
1.50126e+06
1.61514e+06
1.73314e+06
1.85269e+06
1.97017e+06
2.08174e+06
2.18404e+06
2.27458e+06
2.35196e+06
2.41582e+06
2.46668e+06
2.50565e+06
2.53422e+06
2.55398e+06
2.5665e+06
2.57323e+06
2.57544e+06
2.57418e+06
2.57035e+06
2.5647e+06
2.55791e+06
2.53539e+06
384402
470032
679971
827508
956840
1.06612e+06
1.16753e+06
1.2672e+06
1.37008e+06
1.47778e+06
1.58946e+06
1.70262e+06
1.81384e+06
1.91956e+06
2.01663e+06
2.10273e+06
2.17655e+06
2.23774e+06
2.28674e+06
2.32458e+06
2.3526e+06
2.37228e+06
2.38509e+06
2.39237e+06
2.39531e+06
2.39491e+06
2.39202e+06
2.38735e+06
2.38153e+06
2.36095e+06
365587
442813
626572
752695
865170
962600
1.0554e+06
1.14816e+06
1.24475e+06
1.3462e+06
1.45151e+06
1.55825e+06
1.66322e+06
1.76306e+06
1.85487e+06
1.93648e+06
2.00666e+06
2.06506e+06
2.1121e+06
2.14868e+06
2.17605e+06
2.19556e+06
2.20857e+06
2.21632e+06
2.21993e+06
2.22034e+06
2.21833e+06
2.21459e+06
2.20972e+06
2.19102e+06
346458
415830
575951
682606
779314
865378
949696
1.03553e+06
1.12574e+06
1.22088e+06
1.31978e+06
1.4201e+06
1.51881e+06
1.61278e+06
1.6993e+06
1.77636e+06
1.84282e+06
1.89835e+06
1.94329e+06
1.9785e+06
2.00509e+06
2.02431e+06
2.03741e+06
2.04554e+06
2.04972e+06
2.05086e+06
2.04967e+06
2.0468e+06
2.04281e+06
2.02591e+06
327084
389135
528017
617206
699392
774704
850758
929680
1.01347e+06
1.10224e+06
1.19471e+06
1.2886e+06
1.38105e+06
1.46916e+06
1.55038e+06
1.62287e+06
1.68554e+06
1.7381e+06
1.78084e+06
1.81454e+06
1.84022e+06
1.85902e+06
1.87207e+06
1.88046e+06
1.88512e+06
1.88688e+06
1.88642e+06
1.88433e+06
1.88116e+06
1.86596e+06
307550
362796
482691
556420
625434
690712
758796
830876
908232
990603
1.07663e+06
1.16409e+06
1.25032e+06
1.33258e+06
1.40852e+06
1.47641e+06
1.53526e+06
1.58476e+06
1.62521e+06
1.65728e+06
1.68191e+06
1.70015e+06
1.71304e+06
1.72155e+06
1.72657e+06
1.72884e+06
1.729e+06
1.72761e+06
1.72515e+06
1.71156e+06
287949
336895
439944
500128
557385
613432
673910
739274
810221
886200
965789
1.04686e+06
1.1269e+06
1.20335e+06
1.27403e+06
1.33733e+06
1.39233e+06
1.43873e+06
1.47679e+06
1.50713e+06
1.5306e+06
1.54816e+06
1.56074e+06
1.56925e+06
1.57449e+06
1.57716e+06
1.57783e+06
1.57704e+06
1.57521e+06
1.56309e+06
268384
311521
399728
448182
495121
542795
596091
654923
719536
789167
862368
937106
1.01101e+06
1.08171e+06
1.14718e+06
1.20592e+06
1.25706e+06
1.30032e+06
1.33594e+06
1.36446e+06
1.38667e+06
1.40342e+06
1.41558e+06
1.42397e+06
1.42932e+06
1.43226e+06
1.43334e+06
1.43302e+06
1.43172e+06
1.42096e+06
248960
286763
361914
400413
438453
478643
525235
577771
636177
699551
766450
834940
902804
967844
1.02817e+06
1.08238e+06
1.12968e+06
1.1698e+06
1.20293e+06
1.22958e+06
1.25043e+06
1.26628e+06
1.27791e+06
1.28607e+06
1.29141e+06
1.29452e+06
1.2959e+06
1.29596e+06
1.29509e+06
1.28556e+06
229788
262711
326437
356635
387143
420743
461146
507677
560057
617313
678038
740406
802350
861834
917103
966867
1.01037e+06
1.04735e+06
1.07798e+06
1.10271e+06
1.12215e+06
1.13703e+06
1.14804e+06
1.15586e+06
1.1611e+06
1.16429e+06
1.16586e+06
1.16621e+06
1.16568e+06
1.15726e+06
210978
239455
293235
316642
340910
368800
403558
444419
491006
542335
597058
653467
709647
763713
814046
859451
899219
933105
961241
984025
1.00202e+06
1.01586e+06
1.02619e+06
1.0336e+06
1.03865e+06
1.04182e+06
1.04351e+06
1.04406e+06
1.04379e+06
1.03637e+06
192635
217080
255348
278433
299441
322471
352142
387710
428785
474424
523362
574017
624620
673439
718983
760146
796269
827113
852784
873633
890159
902928
912515
919463
924264
927348
929072
929760
929679
923150
174861
195665
212977
234806
262398
281374
306522
337205
373093
413323
456737
501879
547130
590903
631830
668895
701485
729367
752624
771560
786618
798299
807115
813553
818050
820992
822699
823458
823510
817780
157747
175277
178614
194661
228493
245101
266287
292517
323578
358723
396910
436817
476972
515930
552442
585578
614768
639790
660703
677771
691379
701971
710001
715900
720057
722815
724457
725241
725380
720366
141374
155978
152752
163509
194032
213227
231000
253228
279851
310264
343555
378538
413884
448285
480610
510008
535956
558239
576899
592157
604352
613871
621114
626460
630253
632797
634342
635113
635305
630931
125813
132011
132193
139427
161724
185324
200213
218898
241493
267555
296307
326701
357550
387679
416066
441941
464823
484507
501019
514547
525379
533855
540322
545114
548533
550843
552266
553000
553217
549414
111120
109112
114908
120056
134926
160975
173473
189072
208062
230171
254762
280926
307612
333771
358489
381072
401082
418325
432811
444698
454233
461707
467424
471671
474713
476781
478067
478746
478968
475674
97347.2
91214.1
99891.9
103949
113881
139364
150336
163292
179105
197669
218492
240798
263668
286177
307511
327048
344393
359364
371959
382309
390622
397148
402147
405869
408542
410367
411509
412121
412334
409490
84535.7
77258.9
86658.8
90278.1
97359.1
118523
130390
141115
154167
169596
187046
205874
225286
244473
262717
279467
294364
307243
318093
327018
334194
339833
344158
347382
349701
351287
352283
352821
353016
350567
72724.3
65806.1
74948.8
78551.5
84166.3
100038
113270
122127
132809
145499
159967
175696
192011
208209
223663
237886
250562
261536
270792
278412
284543
289364
293063
295821
297806
299164
300017
300479
300647
298544
61947
56047.3
64598.9
68453.9
73456.9
92018.7
98669.4
105965
114626
124946
136807
149805
163375
176912
189875
201836
212517
221776
229593
236032
241216
245291
248418
250748
252422
253566
254283
254669
254805
253001
52227.8
47574.8
55486.9
59763.3
64669.3
80526.3
86339
92323
99265.3
107545
117144
127757
138917
150112
160872
170830
179738
187471
194004
199388
203722
207127
209737
211679
213071
214019
214608
214920
215020
213474
43581.5
45937.2
47508.1
52307.7
65358.8
63841.3
76048.6
80947.1
86429.4
92957.8
100601
109143
118204
127351
136183
144382
151731
158119
163519
167970
171551
174361
176511
178106
179245
180014
180486
180729
180792
179465
35995.9
34720.7
44576.5
45943.7
57635.7
56935.8
67624.3
71606.4
75863.9
80895
86853.7
93604.4
100844
108211
115365
122029
128018
133230
137639
141271
144190
146477
148222
149510
150423
151032
151398
151577
151603
150461
29436.1
28092
37444.7
40672
51314.9
51608.4
60850.9
64101.7
67331.9
71101.2
75618.5
80826.2
86492
92318.1
98015.4
103348
108154
112343
115887
118805
121146
122975
124364
125381
126095
126562
126832
126951
126941
125952
23840.5
23242.7
29425.9
38718.8
46252
47488.9
55519.7
58209.2
60614.3
63330.3
66632.5
70523.3
74837.8
79336
83775.7
87956.1
91736.1
95035.9
97828.2
100124
101960
103387
104463
105242
105778
106118
106301
106364
106316
105454
18804
19091.7
25049.3
32204.4
42162.4
44386.4
51427.7
53711.2
55476.7
57343.7
59636.6
62420.7
65588.2
68952.4
72313.5
75502
78396.3
80926.5
83065.2
84818.1
86212.4
87287
88086.1
88653.7
89031.2
89255.3
89357.4
89366.1
89279.8
88517.2
14810.3
15569.4
21351.7
29055.6
37057.3
42080
47588.1
50399.2
51691.6
52895.7
54374.1
56244.5
58453.7
60862.2
63308.8
65651.9
67787.6
69655.5
71229.2
72510.4
73518.7
74283.5
74838.3
75217
75451.4
75569.7
75596.4
75552.7
75426.3
74739.9
11619.4
12605.1
18245.2
27547.1
34785.8
42628.4
45012.9
48080.3
49043.9
49750.7
50590.2
51724
53147.8
54764.2
56446.2
58078.2
59573
60877.1
61966.9
62841.8
63515.6
64010
64350.1
64561.4
64667.7
64690
64646.8
64552.9
64386.2
63755.6
9051.22
10123.5
15637.6
24350.2
33288.7
39313.5
44782.8
46583.3
47337.7
47689.7
48044.8
48600.4
49393.2
50363.9
51418.1
52461.9
53422
54253.1
54934.4
55464.2
55852
56113.7
56267.9
56333.2
56326.9
56264.3
56158.6
56018.5
55813.3
55222.7
6976
8062.82
13454.4
22612.7
33184.3
38644.8
43936
45762.8
46402.5
46515.8
46518.3
46634.8
46932.5
47385.8
47931.3
48496.5
49019.7
49461.2
49802.9
50043.3
50189.9
50254.5
50250.5
50191.4
50089.1
49954
49794.8
49614.8
49375.5
48813.4
5329.91
6389.65
11636.3
21649.4
32164.8
38290.5
42439.8
45486.5
46098.2
46064.4
45818.3
45612.3
45532.1
45577.6
45717.5
45899.2
46070.1
46195
46259.1
46261.4
46208.3
46108.8
45972.9
45809.9
45627.9
45433.1
45230.7
45018.2
44750.6
44210.3
4062.6
5060.78
10114.7
20010.5
30834
38223.7
42581.3
45632
46285.3
46194.5
45786.9
45352.2
44987.4
44711.5
44530.7
44411.1
44303.4
44173.9
44011.8
43819.1
43602.2
43368.4
43124.4
42876.3
42629.3
42387
42150.8
41913.2
41623.9
41101.6
3081.77
4005.62
8852.89
19218.8
30469.4
38468.2
43075.3
46106.8
46838.5
46758.1
46263.1
45687.6
45118.8
44588
44154
43801.4
43475.1
43139.5
42790.8
42437.4
42087.1
41744.6
41413
41095.6
40795.3
40514.3
40251.6
39994.7
39689.8
39184.6
2318.34
3176.43
7822.31
18085.9
30585
38800.9
43770.6
46962.8
47788.2
47653.2
47078.4
46440.1
45754.8
45035.9
44411.6
43885.2
43383
42869.6
42356.2
41862.4
41400.1
40969.9
40567.5
40191
39842.8
39525.1
39236.4
38961.1
38643.7
38155.9
1733.07
2533.67
6971.7
17292.7
30015.2
39679
44585.6
47927.6
48896.3
48874.3
48351.8
47609.1
46742.3
45843
45072.5
44440.8
43822.4
43174.4
42526.8
41913.2
41358.5
40860.8
40400.5
39966.7
39563.5
39198.1
38872.2
38570.5
38239.5
37771
1290.77
2037.54
6256.88
16545.9
30036.4
39665.4
45483.6
48890.5
50177.6
50216.9
49697.5
48928.8
48057.3
47157.8
46284.7
45454.9
44659.1
43884.2
43118.4
42384.8
41753.1
41232.9
40753.1
40277.2
39819.1
39395.8
39017
38675.1
38326.3
37881.6
959.741
1655.72
5644.61
15814.5
29731.8
40164.5
46377.1
49911.5
51539.1
51691.9
51210.9
50417.5
49483.6
48509.6
47556.3
46646.2
45780.4
44955.8
44171.7
43430.4
42735.4
42085.9
41478.1
40908.4
40374.7
39874.9
39407.9
38971
38561.7
38154
713.494
1361.95
5110.31
15072.7
29210.2
40680.4
47233.4
51013.4
52893
53157.7
52723
51934.2
50976.4
49954.3
48929
47930.4
46973.2
46064.4
45207.9
44405.9
43658.8
42963.8
42316.3
41712.1
41148.2
40622.4
40133.2
39675.1
39254.6
38839.3
532.526
1135.64
4634.2
14304.3
28757.7
40698
48279.1
52123.5
54227.1
54608.2
54218.4
53427.9
52437.5
51364.3
50278.3
49216
48196.3
47228.5
46316.7
45462
44663.6
43919.8
43228.3
42586.4
41990.4
41442.4
40934.2
40465.1
40031.5
39615.7
401.41
960.773
4202.18
13498.2
28246.8
40845.7
48917.4
53201.2
55535.8
56050.4
55720.9
54942.2
53932
52818.9
51681.7
50563.1
49486.8
48465.2
47504.2
46605.5
45768.5
44990.6
44271.3
43609.1
42997.8
42432.8
41911.3
41429.8
40985.5
40563.8
307.096
824.684
3808.13
12656
27514.6
40850.3
49320
54240.2
56811.8
57486.4
57234.7
56480.7
55462.7
54322.4
53146.9
51985
50864.3
49799.5
48797.8
47861.5
46991
46179.2
45451.4
44764.7
44137.6
43557.5
43022.2
42528.4
42073.1
41644.2
239.58
717.645
3447.21
11780.8
26547
40701.3
49991.5
55216.9
57992.3
58926.1
58770.6
58053.8
57038.3
55879.6
54673.4
53474.6
52315.4
51212.8
50174.5
49202.2
48297.9
47488.9
46727.3
46025.8
45378.6
44781.6
44231.3
43724.2
43257.2
42819.6
191.417
632.451
3114.76
10882.5
25487.1
40441.2
50373.9
56121.4
59186.4
60380
60336
59667.1
58663.1
57493.4
56261.6
55029.7
53834.7
52696.7
51626.3
50620.8
49713.8
48862
48081.8
47360.6
46694.9
46081.1
45515.6
44994.8
44515.6
44068.3
157.112
563.791
2808.82
9971.7
24269.1
39892.9
50564.6
56963.7
60402.5
61851.6
61936.7
61327.3
60343.4
59169.1
57916.3
56653.6
55422.6
54248.1
53142.4
52128.9
51186.2
50313.1
49507.6
48763.9
48077.9
47445.9
46864.1
46328.6
45836.2
45377.9
132.653
507.891
2529.42
9065.18
22902
39077.7
50795.7
57750.6
61613
63343.6
63579.5
63043
62088.1
60915.1
59645.7
58355.5
57090
55875.4
54732.9
53696.6
52727.5
51831.5
51001.8
50235
49527.7
48876
48276.2
47724.5
47217.3
46746.4
115.12
461.936
2276.3
8175.07
21411
38083.7
50769
58443.4
62816.5
64860.9
65272.4
64825.2
63908.6
62741.1
61456.6
60140.2
58842.3
57590.5
56420.8
55345.4
54349.4
53424.4
52567.5
51775.4
51044.7
50371.6
49752.2
49182.6
48659.1
48173.8
102.391
423.689
2048.65
7315.98
19810.4
36837.1
50567.4
59059.1
63994.2
66359.5
67018.8
66683.8
65817.5
64661.6
63365.2
62023.5
60692.9
59401.8
58200.2
57087.3
56059.6
55103
54216.2
53396.3
52639.9
51943.1
51302
50712.5
50171
49669.4
92.9743
391.533
1845.67
6501.73
18134.5
35338.3
50114.7
59590.8
65138
67907
68835.4
68635.7
67830.8
66693.3
65389.1
64023.3
62659.6
61329.9
60092.5
58939.4
57875.5
56884.1
55964.4
55113.8
54328.9
53605.8
52940.6
52329.1
51767.5
51247.6
85.9094
364.498
1666.98
5746.84
16408.2
33570.4
49471
59922.1
66199.9
69501.4
70740.2
70701.1
69969.3
68856.8
67548.7
66160
64762.5
63393
62115.4
60920.3
59817.1
58787.6
57831.7
56947
56130.4
55378
54685.8
54049.5
53465
52924.4
80.594
341.985
1511.91
5062.32
14674.8
31508.9
48523.8
60115.1
67187.4
71118
72739.6
72895
72252.9
71174.7
69867.3
68457.3
67025.6
65615
64293.4
63054.2
61908.4
60837.3
59841.5
58919.2
58067.2
57282
56559.5
55895.2
55284.9
54721.7
76.622
323.501
1379.3
4451.65
12979.2
29198.2
47201.1
60058.1
68081.8
72764.6
74826.4
75232.5
74703.3
73673.3
72373.3
70944.2
69478.4
68025.4
66656.1
65370.4
64178.5
63062
62022.5
61058.5
60167.3
59345.5
58588.9
57893.3
57256
56663.2
73.6546
308.45
1267.39
3917.22
11367.8
26663.4
45410.8
59797.4
68894.5
74394.6
77017.2
77721.6
77342.7
76381.6
75099.1
73655.4
72156.1
70659.1
69238.2
67902.4
66660.4
65494.4
64407
63397.1
62462.7
61600.4
60806.2
60075.5
59403
58783.7
71.3885
296.188
1173.89
3457.17
9871.5
23987.9
43148.5
59153.8
69578.2
76016.2
79289.5
80372.9
80197.5
79331.1
78080.5
76629.9
75098.3
73555.2
72077.4
70687.2
69389.6
68168.6
67027.6
65966.6
64983.8
64076.2
63240
62471.4
61763
61109
69.6373
286.337
1096.89
3068.02
8517.17
21257.3
40416.9
58023.4
70061.6
77590.5
81618.7
83187.4
83291.1
82554.7
81353.3
79902.5
78338.6
76746
75205.1
73754.9
72395.3
71112.3
69910.8
68791.7
67754
66794.9
65910.7
65096.1
64348.5
63656.8
68.3119
278.736
1034.76
2745.02
7322.54
18548.4
37274.6
56384.8
70138.1
78978.1
84002.4
86205.6
86665.3
86101.3
84970.6
83528
81932.6
80287.6
78677.8
77162.8
75735.6
74383.6
73114.2
71929.8
70830.1
69812.6
68873.8
68009
67213.8
66479.2
67.3617
272.923
985.806
2482.07
6298.24
15947
33750.2
54127.7
69770.9
80130.8
86410.2
89428.7
90340.9
90009.4
88980.4
87561.2
85941.1
84242.6
82560.1
80976.6
79472.4
78042.8
76696.6
75438
74267.6
73183.6
72183.8
71261.1
70412.9
69629.5
66.7687
269.02
948.637
2272.53
5443.45
13539.6
29903.6
51108.5
68909.3
81065.1
88767.4
92789.9
94295.9
94294.7
93417.1
92049.7
90421
88674
86917.7
85257.5
83662.1
82142.8
80708.2
79364.4
78113.2
76953
75880.4
74893.6
73984.8
73145.6
66.4768
266.641
921.916
2109.97
4749.97
11408.7
25904.8
47234.5
67340.8
81681.1
90992.1
96257.9
98561.2
99011.5
98357.8
97082.3
95466.7
93686.8
91864.9
90111.7
88406.5
86783.2
85249
83810.2
82468.7
81223.5
80072
79009.9
78032.5
77129.8
66.4291
265.557
903.474
1986.81
4201.63
9592.14
21969.3
42610.5
64813.7
81668.5
92924.5
99805
103175
104232
103895
102756
101173
99367.9
97482.3
95621.2
93802.1
92066.6
90424.1
88880.9
87439.6
86099.5
84858.5
83712.6
82656.9
81681.2
66.5086
265.407
892.474
1897.01
3779.94
8106.76
18327.3
37361.3
60981
80836.1
94480.6
103267
108081
109976
110099
109172
107655
105829
103871
101896
99960.5
98105
96343.9
94684.6
93131.3
91685.2
90341.4
89098.8
87952
86891.2
66.678
265.995
887.17
1836.04
3466.96
6938.38
15126.4
31846.8
55810.2
78665.7
95346.4
106561
113220
116291
117091
116503
115116
113288
111252
109150
107088
105100
103209
101422
99743.5
98175.1
96717
95364.1
94112.8
92953.2
66.8683
266.897
886.212
1797.52
3244.01
6053.93
12462.9
26420
49390
74829.5
95159.5
109348
118398
123167
124974
124921
123758
121971
119864
117621
115410
113272
111241
109308
107486
105778
104183
102702
101330
100056
66.9917
267.859
887.96
1776.88
3089.92
5390.07
10292.9
21282.8
41796.1
68724
93242.2
111244
123512
130784
134119
134930
134196
132561
130429
128048
125653
123335
121125
119004
116992
115098
113327
111679
110151
108732
67.2877
269.131
891.719
1770.91
2997.54
4944.01
8708.8
17025.9
34096.7
60546.5
88756.4
111467
127960
138579
144113
146266
146269
144965
142908
140450
137872
135352
132914
130552
128297
126168
124172
122312
120586
118981
67.754
270.473
895.483
1772.55
2953.68
4681.34
7699.38
14004.1
27540.3
51613.4
81997
109559
130707
145336
153874
157955
159085
158359
156526
154059
151326
148610
145927
143296
140766
138363
136104
133995
132037
130216
68.1633
271.616
898.49
1776.77
2936.13
4531.64
7064.14
11943.8
22407.1
42906.7
73306.3
105274
131542
150690
163025
169753
172527
172713
171302
168949
166129
163232
160273
157339
154492
151775
149211
146812
144582
142507
68.5257
272.579
900.882
1782.24
2934.4
4453.24
6675.93
10580.5
18632.7
35264.2
63579
98417.6
129928
154222
171261
181482
186483
187967
187250
185221
182453
179346
176075
172805
169614
166551
163649
160925
158384
156017
68.8369
273.39
902.853
1787.45
2939.26
4417.59
6444.95
9702.12
15985.2
29113.2
53759.9
89101.3
125737
155837
178156
192821
200788
204065
204330
202751
200104
196882
193391
189831
186309
182895
179633
176550
173659
170955
69.0878
274.021
904.654
1792.1
2945.7
4405.69
6317.44
9147.87
14182.5
24451.8
44948.5
78452.1
118477
154619
183128
203327
215258
220968
222607
221714
219312
216037
212367
208547
204717
200950
197310
193835
190547
187452
69.33
274.501
905.808
1795.78
2952.84
4406.25
6252.17
8807.64
12989.4
21071.8
37572.1
67442.4
108715
150671
185702
212230