/*--------------------------------*- C++ -*----------------------------------*\
| =========                 |                                                 |
| \\      /  F ield         | OpenFOAM: The Open Source CFD Toolbox           |
|  \\    /   O peration     | Version:  2312                                  |
|   \\  /    A nd           | Website:  www.openfoam.com                      |
|    \\/     M anipulation  |                                                 |
\*---------------------------------------------------------------------------*/
FoamFile
{
    version     2.0;
    format      ascii;
    arch        "LSB;label=32;scalar=64";
    class       volScalarField;
    location    "20000";
    object      ReThetat;
}
// * * * * * * * * * * * * * * * * * * * * * * * * * * * * * * * * * * * * * //

dimensions      [0 0 0 0 0 0 0];

internalField   nonuniform List<scalar> 
29400
(
122.812
122.884
122.887
122.836
122.739
122.604
122.44
122.255
122.054
121.844
121.63
121.416
121.205
121
120.802
120.613
120.432
120.262
120.101
119.95
119.808
119.675
119.551
119.436
119.328
119.228
119.135
119.049
118.969
118.895
122.812
122.885
122.887
122.833
122.733
122.595
122.427
122.236
122.031
121.817
121.599
121.381
121.167
120.959
120.758
120.567
120.384
120.212
120.05
119.897
119.754
119.62
119.495
119.379
119.271
119.17
119.077
118.99
118.91
118.836
122.814
122.888
122.885
122.823
122.711
122.558
122.374
122.166
121.944
121.713
121.48
121.248
121.021
120.801
120.59
120.389
120.198
120.019
119.85
119.691
119.543
119.405
119.276
119.157
119.045
118.942
118.846
118.758
118.675
118.599
122.816
122.894
122.879
122.801
122.665
122.482
122.265
122.023
121.765
121.5
121.234
120.972
120.717
120.472
120.239
120.017
119.809
119.613
119.43
119.259
119.099
118.951
118.813
118.685
118.567
118.457
118.355
118.261
118.174
118.093
122.82
122.903
122.871
122.767
122.596
122.369
122.102
121.807
121.496
121.178
120.862
120.553
120.256
119.972
119.703
119.449
119.212
118.99
118.784
118.591
118.413
118.248
118.094
117.952
117.821
117.7
117.588
117.484
117.388
117.3
122.825
122.911
122.859
122.726
122.509
122.228
121.899
121.537
121.158
120.773
120.393
120.024
119.671
119.336
119.02
118.724
118.449
118.192
117.955
117.734
117.531
117.342
117.168
117.008
116.86
116.723
116.597
116.48
116.373
116.274
122.829
122.919
122.846
122.675
122.403
122.055
121.65
121.208
120.746
120.282
119.825
119.384
118.964
118.568
118.197
117.851
117.53
117.233
116.959
116.706
116.473
116.258
116.061
115.879
115.711
115.558
115.416
115.286
115.166
115.055
122.834
122.928
122.882
122.62
122.28
121.852
121.355
120.815
120.256
119.696
119.149
118.624
118.126
117.659
117.225
116.822
116.45
116.107
115.791
115.502
115.236
114.992
114.769
114.564
114.376
114.203
114.045
113.9
113.767
113.644
122.84
122.939
122.895
122.642
122.247
121.734
121.133
120.478
119.801
119.125
118.466
117.836
117.242
116.687
116.172
115.698
115.261
114.861
114.494
114.159
113.852
113.572
113.316
113.082
112.869
112.673
112.495
112.331
112.181
112.044
122.848
122.951
122.893
122.611
122.142
121.525
120.805
120.025
119.223
118.425
117.652
116.917
116.227
115.586
114.994
114.451
113.953
113.498
113.083
112.705
112.361
112.047
111.762
111.502
111.264
111.048
110.851
110.671
110.506
110.355
122.856
122.964
122.881
122.543
121.98
121.245
120.393
119.478
118.543
117.621
116.733
115.893
115.11
114.386
113.721
113.113
112.558
112.054
111.596
111.18
110.802
110.459
110.147
109.864
109.607
109.373
109.159
108.965
108.788
108.626
122.865
122.976
122.858
122.447
121.775
120.908
119.914
118.856
117.784
116.735
115.732
114.79
113.917
113.114
112.381
111.714
111.109
110.56
110.064
109.615
109.208
108.841
108.507
108.205
107.931
107.683
107.457
107.251
107.064
106.894
122.875
122.987
122.827
122.328
121.535
120.524
119.379
118.173
116.961
115.785
114.669
113.628
112.67
111.795
111
110.28
109.63
109.043
108.514
108.038
107.608
107.219
106.869
106.552
106.265
106.005
105.77
105.556
105.362
105.185
122.884
122.996
122.786
122.189
121.262
120.099
118.797
117.439
116.087
114.785
113.56
112.426
111.389
110.447
109.597
108.831
108.143
107.524
106.969
106.47
106.021
105.617
105.254
104.926
104.629
104.362
104.119
103.899
103.7
103.519
122.893
123.003
122.736
122.031
120.961
119.638
118.174
116.661
115.17
113.747
112.418
111.198
110.088
109.088
108.189
107.384
106.664
106.02
105.444
104.928
104.465
104.05
103.677
103.341
103.039
102.766
102.519
102.296
102.093
101.909
122.901
123.006
122.676
121.853
120.632
119.142
117.512
115.846
114.219
112.679
111.253
109.953
108.78
107.728
106.789
105.952
105.207
104.543
103.952
103.423
102.951
102.529
102.15
101.809
101.503
101.227
100.979
100.754
100.55
100.365
122.907
123.006
122.605
121.657
120.275
118.613
116.816
114.997
113.238
111.588
110.072
108.701
107.473
106.378
105.406
104.544
103.78
103.102
102.499
101.963
101.485
101.058
100.676
100.334
100.026
99.7498
99.5005
99.2755
99.072
98.8877
122.911
123.001
122.524
121.441
119.892
118.053
116.087
114.119
112.233
110.48
108.883
107.45
106.173
105.043
104.045
103.163
102.385
101.697
101.088
100.547
100.066
99.6373
99.2544
98.9118
98.6046
98.3287
98.0804
97.8566
97.6545
97.4715
122.913
122.993
122.432
121.207
119.483
117.464
115.33
113.215
111.209
109.36
107.69
106.202
104.885
103.725
102.706
101.81
101.022
100.328
99.7142
99.1713
98.6896
98.2612
97.8794
97.5384
97.2331
96.9593
96.7132
96.4917
96.2919
96.1112
122.914
122.982
122.33
120.953
119.049
116.847
114.545
112.288
110.168
108.231
106.496
104.96
103.609
102.426
101.391
100.486
99.692
98.9946
98.3806
97.8384
97.3585
96.9326
96.5538
96.2159
95.914
95.6435
95.4008
95.1826
94.9859
94.8084
122.913
122.966
122.217
120.681
118.59
116.202
113.735
111.341
109.113
107.097
105.304
103.728
102.351
101.152
100.107
99.1966
98.4012
97.7047
97.093
96.5543
96.0785
95.6571
95.2829
94.9498
94.6525
94.3866
94.1482
93.9341
93.7414
93.5677
122.91
122.947
122.094
120.391
118.107
115.532
112.902
110.378
108.051
105.964
104.122
102.515
101.118
99.9082
98.8591
97.9481
97.1551
96.4627
95.8563
95.3235
94.854
94.4389
94.071
93.7439
93.4525
93.1922
92.9591
92.75
92.562
92.3926
122.906
122.925
121.96
120.082
117.601
114.84
112.051
109.402
106.985
104.836
102.955
101.323
99.9147
98.6999
97.6513
96.7442
95.9572
95.2721
94.6736
94.149
93.6877
93.2806
92.9204
92.6007
92.3162
92.0624
91.8355
91.6321
91.4494
91.2849
122.902
122.899
121.816
119.755
117.074
114.126
111.183
108.419
105.921
103.719
101.806
100.159
98.7442
97.5303
96.487
95.5877
94.81
94.135
93.5469
93.0325
92.5811
92.1836
91.8323
91.5211
91.2446
90.9981
90.7781
90.5811
90.4043
90.2454
122.896
122.87
121.661
119.411
116.525
113.393
110.303
107.431
104.861
102.616
100.68
99.024
97.6099
96.4022
95.3684
94.4806
93.7153
93.0529
92.4772
91.9749
91.5349
91.1482
90.8071
90.5054
90.2376
89.9994
89.7869
89.5969
89.4267
89.2737
122.89
122.839
121.495
119.049
115.957
112.643
109.412
106.442
103.811
101.531
99.5807
97.9224
96.5144
95.3175
94.2972
93.4242
92.674
92.0264
91.465
90.9763
90.5491
90.1744
89.8444
89.553
89.2949
89.0656
88.8613
88.6789
88.5156
88.3692
122.883
122.804
121.319
118.671
115.37
111.878
108.514
105.456
102.772
100.467
98.51
96.8562
95.4597
94.2782
93.275
92.4196
91.6867
91.0559
90.5104
90.0366
89.6234
89.2616
88.9437
88.6635
88.4157
88.1959
88.0004
87.8261
87.6703
87.5308
122.876
122.766
121.133
118.276
114.767
111.101
107.612
104.475
101.749
99.4276
97.4711
95.8282
94.4483
93.2861
92.3032
91.4678
90.7543
90.1418
89.6136
89.1559
88.7576
88.4098
88.1048
87.8364
87.5996
87.3899
87.2038
87.0381
86.8903
86.7581
122.869
122.726
120.937
117.866
114.148
110.314
106.709
103.503
100.745
98.4157
96.4672
94.8415
93.4831
92.344
91.3842
90.5711
89.8786
89.2859
88.7761
88.3356
87.9532
87.6201
87.3287
87.0729
86.8477
86.6487
86.4725
86.316
86.1766
86.0521
122.862
122.683
120.731
117.442
113.515
109.519
105.808
102.543
99.7627
97.4354
95.5025
93.8992
92.5662
91.4528
90.5181
89.729
89.0591
88.4875
87.9973
87.5749
87.2094
86.8919
86.6149
86.3725
86.1596
85.972
85.8063
85.6595
85.529
85.4129
122.856
122.638
120.515
117.003
112.869
108.719
104.911
101.6
98.8073
96.4899
94.578
93.0008
91.6954
90.6098
89.7018
88.938
88.292
87.7426
87.2731
86.8699
86.5223
86.2212
85.9596
85.7313
85.5315
85.356
85.2015
85.065
84.9442
84.8369
122.85
122.59
120.289
116.551
112.214
107.917
104.023
100.676
97.8808
95.5789
93.692
92.1437
90.8684
89.8123
88.9325
88.1954
87.5743
87.0482
86.6004
86.2174
85.8885
85.6048
85.3592
85.1459
84.9599
84.7973
84.6546
84.5291
84.4183
84.3205
122.845
122.54
120.054
116.087
111.549
107.114
103.147
99.7739
96.9829
94.7018
92.8436
91.3272
90.0839
89.0589
88.2087
87.4995
86.9044
86.4026
85.9774
85.6154
85.3061
85.0406
84.8119
84.6143
84.4428
84.2937
84.1635
84.0496
83.9496
83.8617
122.842
122.489
119.811
115.612
110.879
106.315
102.284
98.8943
96.1142
93.8589
92.0329
90.5505
89.3411
88.3486
87.5293
86.8489
86.2809
85.8043
85.4027
85.0627
84.7738
84.5273
84.3164
84.1352
83.979
83.8441
83.7271
83.6254
83.5367
83.4593
122.842
122.435
119.56
115.128
110.204
105.522
101.437
98.0385
95.2757
93.0503
91.2593
89.8131
88.6391
87.6804
86.8929
86.2425
85.7026
85.2523
84.8751
84.558
84.2905
84.0639
83.8715
83.7076
83.5675
83.4475
83.3444
83.2556
83.1789
83.1126
122.848
122.38
119.301
114.635
109.527
104.736
100.608
97.2078
94.4678
92.276
90.5225
89.1142
87.9769
87.0532
86.2987
85.6792
85.1684
84.7453
84.3937
84.1004
83.8552
83.6495
83.4766
83.3308
83.2076
83.1033
83.0148
82.9395
82.8755
82.8209
122.86
122.324
119.035
114.137
108.85
103.959
99.7966
96.4033
93.6909
91.5358
89.8219
88.4529
87.3536
86.4659
85.7454
85.1579
84.6772
84.2824
83.9573
83.689
83.4671
83.2832
83.1306
83.0039
82.8985
82.8107
82.7376
82.6767
82.6259
82.5838
122.884
122.267
118.763
113.633
108.175
103.195
99.0062
95.6257
92.9451
90.8294
89.1567
87.8284
86.768
85.9174
85.2319
84.6776
84.228
83.8626
83.5651
83.3228
83.1252
82.9642
82.833
82.7263
82.6395
82.5692
82.5123
82.4665
82.4298
82.4007
122.923
122.211
118.487
113.126
107.504
102.443
98.2375
94.8756
92.2302
90.156
88.526
87.2394
86.2192
85.4066
84.7572
84.2371
83.8198
83.4849
83.2162
83.0009
82.8288
82.6917
82.5829
82.4972
82.43
82.378
82.3382
82.3083
82.2864
82.2712
122.983
122.154
118.208
112.617
106.838
101.707
97.4916
94.1533
91.5461
89.5151
87.929
86.6852
85.7059
84.9325
84.3203
83.8354
83.4515
83.1482
82.9095
82.7224
82.577
82.4649
82.3796
82.3159
82.2693
82.2365
82.2147
82.2015
82.1953
82.1946
123.073
122.098
117.926
112.108
106.181
100.988
96.7694
93.4588
90.8921
88.9058
87.3645
86.1645
85.2272
84.4938
83.9199
83.4714
83.1221
82.8517
82.6441
82.4865
82.3688
82.2829
82.2222
82.1815
82.1566
82.144
82.141
82.1454
82.1556
82.1702
123.198
122.045
117.643
111.602
105.533
100.287
96.0715
92.792
90.2677
88.3271
86.8317
85.6762
84.7818
84.0895
83.5549
83.144
82.8305
82.5942
82.419
82.292
82.2034
82.1448
82.1098
82.0933
82.091
82.0995
82.1163
82.1392
82.1666
82.1972
123.365
121.993
117.362
111.1
104.897
99.6049
95.3982
92.1526
89.6721
87.7781
86.3293
85.2192
84.3686
83.7184
83.2242
82.852
82.5756
82.3746
82.233
82.138
82.0795
82.0495
82.0414
82.05
82.0713
82.102
82.1394
82.1816
82.227
82.2744
123.578
121.946
117.083
110.603
104.275
98.9439
94.7498
91.5401
89.1045
87.2578
85.8562
84.7921
83.9862
83.3792
82.9265
82.5943
82.3561
82.1918
82.085
82.0232
81.9961
81.9957
82.0155
82.0505
82.0964
82.1501
82.2091
82.2714
82.3356
82.4004
123.837
121.905
116.809
110.115
103.668
98.3043
94.1261
90.9538
88.5637
86.7649
85.411
84.3938
83.6335
83.0706
82.6605
82.3694
82.1707
82.0442
81.9736
81.9461
81.9517
81.9821
82.0309
82.0931
82.1647
82.2424
82.3237
82.407
82.4906
82.5736
124.135
121.872
116.543
109.637
103.078
97.687
93.5272
90.3932
88.0489
86.2982
84.9926
84.0229
83.3089
82.7911
82.4248
82.1758
82.0179
81.9305
81.8972
81.9053
81.9446
82.0069
82.0858
82.1763
82.2743
82.3768
82.4814
82.5862
82.69
82.7917
124.465
121.851
116.285
109.17
102.506
97.0924
92.9525
89.8571
87.5588
85.8564
84.5994
83.6778
83.011
82.5392
82.2177
82.0121
81.8961
81.8488
81.8541
81.8989
81.9729
82.0682
82.1781
82.2978
82.4232
82.5513
82.6797
82.8069
82.9314
83.0522
124.817
121.845
116.039
108.719
101.955
96.521
92.4018
89.3448
87.0921
85.4381
84.23
83.3571
82.7381
82.3133
82.0375
81.8764
81.8033
81.7974
81.8422
81.9247
82.0346
82.1637
82.3056
82.4553
82.6088
82.7631
82.9161
83.0661
83.2118
83.3523
125.185
121.859
115.807
108.283
101.425
95.9731
91.8743
88.855
86.6476
85.0417
83.8828
83.0589
82.4885
82.1114
81.8823
81.7667
81.7375
81.774
81.8594
81.9805
82.1272
82.291
82.4656
82.6459
82.8282
83.0094
83.1874
83.3607
83.5281
83.6885
125.563
121.897
115.591
107.867
100.918
95.4488
91.3694
88.3866
86.2237
84.6657
83.5561
82.7816
82.2604
81.9317
81.7501
81.6808
81.6965
81.7762
81.903
82.0637
82.2478
82.447
82.6549
82.8666
83.0781
83.2867
83.4902
83.6871
83.8764
84.0571
125.951
121.964
115.393
107.473
100.435
94.9482
90.8862
87.9384
85.8188
84.3083
83.2478
82.5231
82.0515
81.7719
81.6386
81.6163
81.6777
81.8013
81.9703
82.1711
82.3933
82.6286
82.8704
83.1138
83.355
83.5912
83.8204
84.0412
84.2526
84.4537
126.347
122.064
115.217
107.102
99.9775
94.4712
90.424
87.5088
85.4313
83.9676
82.9561
82.2813
81.8596
81.6297
81.5451
81.5705
81.6781
81.8464
82.058
82.2996
82.5604
82.832
83.108
83.3835
83.6546
83.9188
84.1739
84.4186
84.6522
84.8737
126.751
122.201
115.064
106.758
99.5471
94.0178
89.9816
87.0964
85.0594
83.6416
82.6788
82.0538
81.6824
81.5023
81.467
81.5405
81.6948
81.9081
82.1629
82.4454
82.7451
83.0534
83.3638
83.6715
83.9727
84.2647
84.5458
84.8145
85.0703
85.3122
127.162
122.376
114.937
106.444
99.1448
93.5878
89.5582
86.6997
84.7011
83.3281
82.4133
81.8381
81.5169
81.387
81.4012
81.523
81.7243
81.9828
82.2809
82.6047
82.9433
83.2883
83.6332
83.9731
84.3043
84.6242
84.9311
85.2238
85.5016
85.7637
127.58
122.59
114.841
106.163
98.7718
93.181
89.1525
86.3169
84.3542
83.0246
82.1573
81.6314
81.3604
81.2806
81.3443
81.5146
81.7629
82.0667
82.408
82.773
83.1505
83.5321
83.9113
84.2833
84.6443
84.992
85.3245
85.6409
85.9405
86.2227
128.003
122.842
114.778
105.917
98.4294
92.7974
88.7636
85.9463
84.0168
82.7288
81.9078
81.4307
81.2095
81.1797
81.2928
81.5114
81.8066
82.1554
82.5398
82.9457
83.3619
83.7798
84.1931
84.5967
84.9873
85.3624
85.7202
86.06
86.3812
86.6833
128.432
123.132
114.753
105.71
98.1188
92.4367
88.3904
85.5862
83.6863
82.4378
81.6619
81.2328
81.061
81.0807
81.2427
81.5093
81.8509
82.2444
82.6715
83.1178
83.5722
84.0261
84.4729
84.9079
85.3275
85.7296
86.1124
86.4752
86.8176
87.1391
128.867
123.456
114.77
105.545
97.8413
92.0987
88.0317
85.2347
83.3604
82.1488
81.4163
81.0343
80.9109
80.9795
81.19
81.5039
81.8914
82.3289
82.7981
83.2842
83.7762
84.2653
84.745
85.2107
85.6589
86.0874
86.4947
86.88
87.2432
87.5838
129.309
123.813
114.834
105.425
97.5979
91.7834
87.6866
84.8901
83.0366
81.8589
81.1679
80.8314
80.7555
80.8721
81.1301
81.4905
81.923
82.4038
82.9141
83.4392
83.9679
84.4915
85.0034
85.4991
85.9752
86.4294
86.8606
87.2679
87.6514
88.0106
129.759
124.202
114.949
105.353
97.3897
91.4907
87.3542
84.5506
82.7126
81.565
80.913
80.6203
80.5906
80.7539
81.0583
81.4642
81.9407
82.4635
83.0139
83.577
84.1414
84.6985
85.2417
85.7665
86.2696
86.7489
87.2033
87.632
88.0353
88.4126
130.22
124.626
115.123
105.333
97.2178
91.2206
87.0336
84.2147
82.386
81.2643
80.6482
80.3971
80.4117
80.6203
80.9698
81.4197
81.9388
82.5025
83.0917
83.6915
84.2904
84.8798
85.4532
86.0062
86.5354
87.039
87.5157
87.9652
88.3875
88.7824
130.696
125.086
115.361
105.365
97.0826
90.9729
86.7242
83.881
82.055
80.954
80.3701
80.1578
80.2145
80.4665
80.8594
81.3517
81.9118
82.5148
83.1412
83.7762
84.4083
85.0287
85.6311
86.2111
86.7654
87.2922
87.7905
88.2599
88.7006
89.1124
131.191
125.589
115.673
105.453
96.9836
90.747
86.4254
83.5488
81.7178
80.6317
80.0755
79.8986
79.9947
80.2878
80.7219
81.2547
81.8539
82.4943
83.1563
83.8248
84.4884
85.1383
85.7683
86.3739
86.9522
87.5012
88.02
88.5084
88.9668
89.3948
131.712
126.142
116.066
105.601
96.92
90.5426
86.1371
83.2177
81.3737
80.2957
79.762
79.6162
79.7483
80.0796
80.5524
81.1233
81.7594
82.4351
83.1306
83.8307
84.5239
85.2017
85.8576
86.4874
87.0882
87.6581
88.1964
88.7029
89.1779
89.6213
132.269
126.756
116.549
105.808
96.8909
90.3591
85.8596
82.8876
81.0222
79.9452
79.4278
79.3082
79.4722
79.8381
80.3465
80.9527
81.6231
82.3316
83.0582
83.7877
84.5085
85.2121
85.8921
86.5444
87.1662
87.7556
88.3121
88.8355
89.3261
89.784
132.872
127.441
117.136
106.08
96.8942
90.196
85.5925
82.5591
80.6638
79.5801
79.0723
78.9732
79.1642
79.5606
80.1009
80.7391
81.4407
82.1791
82.9342
83.6905
84.4365
85.1636
85.8657
86.5386
87.1795
87.7869
88.3601
88.899
89.4041
89.8754
133.538
128.207
117.834
106.426
96.9322
90.054
85.3355
82.2322
80.2994
79.2017
78.6966
78.6116
78.8242
79.2463
79.8141
80.4805
81.2097
81.9748
82.7553
83.5356
84.3041
85.0523
85.7741
86.4653
87.1235
87.7469
88.3351
88.888
89.4062
89.8896
134.266
129.036
118.616
106.891
97.0388
89.932
85.0842
81.9057
79.9301
78.8117
78.3027
78.2258
78.4541
78.8967
79.4875
80.1776
80.9306
81.7189
82.5214
83.3226
84.1106
84.8771
85.616
86.3233
86.9964
87.6338
88.2352
88.8005
89.3302
89.8243
135.007
129.859
119.434
107.443
97.2535
89.876
84.8546
81.584
79.5587
78.4136
77.8949
77.8201
78.0586
78.5163
79.125
79.8344
80.6071
81.4147
82.2358
83.0545
83.859
84.6409
85.3943
86.1151
86.8009
87.4503
88.0628
88.6386
89.1781
89.6815
135.731
130.681
120.3
108.066
97.5377
89.8936
84.687
81.2916
79.1926
78.0114
77.4781
77.4003
77.6439
78.112
78.7339
79.4583
80.2468
81.0701
81.9063
82.7393
83.5573
84.3519
85.1172
85.8492
86.5455
87.2047
87.8264
88.4109
88.9586
89.4697
136.437
131.501
121.209
108.765
97.8979
89.9741
84.5725
81.0444
78.8586
77.6234
77.0602
76.9716
77.2162
77.6913
78.3228
79.0587
79.8598
80.6959
81.5444
82.3889
83.2175
84.0223
84.7973
85.5385
86.2433
86.9106
87.5398
88.1313
88.6856
89.203
137.123
132.316
122.159
109.543
98.3417
90.1258
84.5172
80.8473
78.5653
77.2659
76.6615
76.5488
76.7824
77.2573
77.8964
78.6433
79.456
80.3035
81.1627
82.0164
82.8533
83.666
84.4492
85.1983
85.9105
86.5845
87.2199
87.817
88.3764
88.8989
137.789
133.123
123.145
110.407
98.872
90.353
84.5311
80.7112
78.3259
76.9559
76.3033
76.1584
76.3717
76.8352
77.4698
78.2171
79.0342
79.8888
80.7574
81.6225
82.4715
83.2955
84.0883
84.8456
85.5651
86.2454
86.8861
87.4875
88.0506
88.5764
138.433
133.918
124.162
111.355
99.5014
90.6652
84.6207
80.6462
78.1525
76.7076
76.0029
75.8219
76.0106
76.4582
77.0833
77.8263
78.6427
79.4996
80.3726
81.2437
82.0998
82.9316
83.7324
84.4981
85.2259
85.9144
86.5631
87.1724
87.743
88.2761
139.054
134.7
125.201
112.387
100.234
91.0718
84.7958
80.6625
78.0568
76.5341
75.7751
75.5559
75.7181
76.1476
76.7613
77.4978
78.3115
79.1687
80.0442
80.9195
81.781
82.6191
83.4269
84.1999
84.9353
85.6314
86.2878
86.9046
87.4825
88.0227
139.651
135.464
126.257
113.509
101.074
91.58
85.0655
80.7675
78.0483
76.4467
75.6325
75.3745
75.5095
75.9205
76.5221
77.2513
78.0617
78.9183
79.7955
80.6742
81.5404
82.384
83.198
83.9777
84.7199
85.4231
86.0865
86.7102
87.295
87.8418
140.222
136.206
127.32
114.71
102.029
92.2018
85.4394
80.9701
78.1356
76.4549
75.5857
75.2893
75.3978
75.7908
76.3808
77.1032
77.9104
78.7668
79.6458
80.5279
81.3986
82.2477
83.0677
83.8537
84.6027
85.3126
85.9828
86.6132
87.2045
87.7576
140.763
136.924
128.382
115.982
103.106
92.9401
85.924
81.2798
78.3266
76.5656
75.6418
75.3082
75.3917
75.7685
76.3485
77.0658
77.8714
78.7286
79.6105
80.4969
81.373
82.2281
83.0548
83.8479
84.6039
85.321
85.9982
86.6355
87.2334
87.7929
141.275
137.614
129.436
117.313
104.309
93.8074
86.5212
81.6965
78.6223
76.7804
75.8027
75.4338
75.4947
75.858
76.4309
77.1458
77.9522
78.8129
79.6999
80.5926
81.476
82.3389
83.1737
83.975
84.7393
85.4644
86.1495
86.7944
87.3996
87.9661
141.754
138.271
130.473
118.698
105.635
94.8051
87.2336
82.2201
79.0204
77.0956
76.0645
75.6622
75.7035
76.0566
76.6263
77.3424
78.1535
79.021
79.9164
80.8186
81.712
82.5854
83.4308
84.2425
85.0169
85.7518
86.4464
87.1003
87.7141
88.2887
142.2
138.893
131.486
120.121
107.076
95.9312
88.0655
82.8525
79.5171
77.5041
76.4181
75.9835
76.0078
76.3545
76.9249
77.6469
78.4671
79.3459
80.2539
81.1694
82.0767
82.964
83.8231
84.6482
85.4355
86.1828
86.8891
87.5542
88.1785
88.763
142.611
139.477
132.464
121.563
108.617
97.192
89.0168
83.5843
80.102
77.9941
76.8502
76.3832
76.3924
76.7359
77.3111
78.0433
78.8773
79.7722
80.6977
81.6314
82.5569
83.4623
84.339
85.1811
85.9848
86.7476
87.4686
88.1475
88.7849
89.3816
142.988
140.021
133.4
123.009
110.252
98.5833
90.0801
84.4079
80.7658
78.5539
77.3471
76.8458
76.8405
77.1829
77.7663
78.5129
79.3653
80.281
81.2287
82.1852
83.1336
84.0616
84.9602
85.8233
86.647
87.429
88.1679
88.8638
89.517
90.1285
143.331
140.524
134.288
124.438
111.968
100.101
91.2537
85.3213
81.5031
79.1748
77.8975
77.3581
77.3372
77.6796
78.2736
79.0377
79.9123
80.8531
81.8274
82.8112
83.7869
84.7417
85.6663
86.5545
87.4021
88.2066
88.967
89.6829
90.3549
90.9841
143.641
140.986
135.122
125.833
113.741
101.742
92.5476
86.3274
82.3092
79.8505
78.4936
77.911
77.8724
78.2146
78.8204
79.6045
80.5044
81.4737
82.4784
83.4933
84.5003
85.4858
86.4403
87.3572
88.2323
89.0629
89.8479
90.5869
91.2807
91.9301
143.918
141.405
135.897
127.176
115.549
103.509
93.9648
87.4253
83.1847
80.58
79.1328
78.5006
78.4409
78.7819
79.4001
80.2058
81.1333
82.1342
83.1724
84.222
85.2637
86.2835
87.2714
88.2205
89.1263
89.9861
90.7987
91.5638
92.282
92.9543
144.165
141.783
136.611
128.454
117.369
105.392
95.5061
88.6182
84.1342
81.3658
79.8157
79.126
79.0411
79.3792
80.0099
80.8385
81.7958
82.8308
83.9058
84.9932
86.073
87.1305
88.1551
89.1397
90.0794
90.9715
91.8147
92.6086
93.3538
94.0514
144.384
142.122
137.261
129.653
119.17
107.372
97.1811
89.9197
85.163
82.2104
80.5441
79.7885
79.6735
80.0065
80.6494
81.502
82.4911
83.5629
84.6776
85.8062
86.9277
88.0263
89.0912
90.1146
91.0915
92.0191
92.8959
93.7214
94.4964
95.2219
144.577
142.422
137.849
130.767
120.926
109.418
98.9941
91.3465
86.2803
83.1195
81.3217
80.4904
80.3393
80.6643
81.3187
82.1961
83.2191
84.3304
85.4881
86.6615
87.8282
88.9718
90.0807
91.1466
92.1645
93.131
94.0446
94.905
95.7126
96.4688
144.747
142.688
138.374
131.789
122.615
111.517
100.942
92.8987
87.4948
84.1027
82.1548
81.2352
81.0404
81.3533
82.0177
82.9206
83.9792
85.1329
86.337
87.559
88.7751
89.9679
91.1248
92.2375
93.3001
94.3094
95.2635
96.1622
97.0059
97.7958
144.897
142.921
138.839
132.713
124.213
113.638
103.016
94.5952
88.8238
85.1675
83.0487
82.0261
81.7782
82.0738
82.7461
83.6745
84.7705
85.9694
87.2235
88.4981
89.7679
91.0143
92.2239
93.3877
94.4995
95.5558
96.5546
97.4954
98.3787
99.2058
145.031
143.126
139.247
133.539
125.698
115.746
105.219
96.444
90.2808
86.3295
84.0115
82.867
82.5543
82.8258
83.5029
84.4562
85.591
86.8378
88.1455
89.4769
90.805
92.1098
93.377
94.5967
95.7625
96.8703
97.9181
98.9053
99.8323
100.7
145.151
143.306
139.6
134.264
127.049
117.794
107.526
98.4637
91.8844
87.6006
85.0512
83.7621
83.3702
83.6092
84.2868
85.2638
86.4382
87.7353
89.1002
90.4928
91.884
93.2521
94.5819
95.8628
97.0876
98.2519
99.3535
100.392
101.367
102.28
145.263
143.466
139.904
134.891
128.253
119.73
109.89
100.652
93.6489
88.9979
86.1826
84.7207
84.2306
84.4255
85.0973
86.0952
87.3093
88.6587
90.0842
91.5422
93.0012
94.4379
95.8357
97.183
98.4721
99.6982
100.859
101.953
102.981
103.943
145.369
143.61
140.166
135.426
129.305
121.514
112.253
103.01
95.5967
90.5317
87.414
85.7508
85.1412
85.2776
85.9348
86.9494
88.2018
89.6046
91.0932
92.6205
94.1518
95.6619
97.1329
98.5521
99.9111
101.204
102.429
103.584
104.67
105.688
145.474
143.745
140.393
135.879
130.207
123.113
114.543
105.497
97.747
92.2305
88.7675
86.868
86.1112
86.1702
86.8011
87.8257
89.1136
90.5695
92.123
93.7225
95.3302
96.9187
98.4682
99.9648
101.399
102.765
104.06
105.282
106.431
107.508
145.583
143.875
140.595
136.259
130.967
124.51
116.687
108.037
100.101
94.1325
90.2747
88.0944
87.1544
87.1111
87.6995
88.7244
90.043
91.5505
93.1696
94.8438
96.5315
98.2027
99.8357
101.415
102.931
104.376
105.746
107.04
108.258
109.4
145.7
144.008
140.779
136.581
131.599
125.699
118.63
110.559
102.629
96.262
91.9672
89.4521
88.2871
88.1106
88.6356
89.6478
90.9894
92.545
94.2292
95.9796
97.7503
99.5082
101.229
102.897
104.5
106.029
107.481
108.853
110.145
111.358
145.834
144.155
140.965
136.872
132.14
126.724
120.389
113.054
105.383
98.7208
93.9483
91.0321
89.5834
89.2273
89.6569
90.6364
91.9903
93.5896
95.3394
97.1695
99.0289
100.881
102.699
104.463
106.162
107.784
109.327
110.786
112.161
113.452
145.985
144.314
141.152
137.134
132.586
127.552
121.855
115.302
108.138
101.393
96.1733
92.799
91.0089
90.4272
90.7266
91.6488
92.999
94.6325
96.4429
98.3515
100.301
102.249
104.167
106.033
107.831
109.552
111.19
112.74
114.202
115.577
146.146
144.48
141.338
137.368
132.94
128.174
122.96
117.089
110.55
103.97
98.4515
94.6449
92.4894
91.6499
91.7913
92.6347
93.9645
95.6195
97.4806
99.4599
101.493
103.532
105.546
107.509
109.404
111.219
112.948
114.587
116.133
117.587
146.316
144.656
141.527
137.591
133.246
128.664
123.805
118.493
112.589
106.376
100.742
96.5571
94.0312
92.9102
92.8678
93.6115
94.9052
96.5699
98.4727
100.516
102.626
104.753
106.858
108.915
110.903
112.81
114.627
116.351
117.977
119.508
146.497
144.842
141.727
137.817
133.526
129.07
124.469
119.593
114.265
108.534
102.986
98.5243
95.637
94.218
93.9705
94.5963
95.8401
97.5044
99.4418
101.543
103.729
105.94
108.135
110.283
112.362
114.358
116.263
118.069
119.775
121.38
146.687
145.039
141.937
138.049
133.798
129.43
125.014
120.466
115.621
110.4
105.109
100.515
97.3018
95.579
95.109
95.5991
96.7808
98.4379
100.407
102.565
104.825
107.121
109.405
111.646
113.818
115.905
117.898
119.79
121.577
123.259
146.885
145.246
142.159
138.291
134.074
129.771
125.486
121.183
116.725
111.98
107.049
102.483
99.0135
96.9873
96.2803
96.6178
97.7247
99.3677
101.366
103.583
105.92
108.305
110.686
113.025
115.296
117.482
119.57
121.553
123.428
125.194
147.092
145.463
142.395
138.548
134.36
130.108
125.92
121.799
117.641
113.308
108.775
104.37
100.755
98.4475
97.4877
97.6513
98.6662
100.284
102.307
104.583
107.002
109.483
111.966
114.412
116.791
119.085
121.278
123.363
125.335
127.194
147.305
145.688
142.64
138.82
134.663
130.454
126.341
122.354
118.427
114.432
110.287
106.14
102.498
99.9537
98.7366
98.7064
99.606
101.181
103.217
105.546
108.045
110.623
113.215
115.775
118.272
120.682
122.989
125.185
127.265
129.225
147.524
145.92
142.896
139.106
134.984
130.817
126.765
122.882
119.129
115.405
111.605
107.76
104.205
101.504
100.038
99.7971
100.558
102.068
104.098
106.467
109.037
111.708
114.406
117.08
119.694
122.223
124.649
126.961
129.153
131.222
147.75
146.16
143.164
139.408
135.324
131.2
127.203
123.402
119.784
116.273
112.766
109.228
105.844
103.079
101.402
100.943
101.542
102.962
104.967
107.359
109.986
112.737
115.53
118.31
121.036
123.68
126.221
128.646
130.949
133.125
147.979
146.406
143.441
139.725
135.685
131.607
127.663
123.932
120.421
117.076
113.81
110.558
107.395
104.657
102.821
102.15
102.576
103.889
105.849
108.247
110.917
113.736
116.613
119.487
122.314
125.061
127.707
130.236
132.641
134.917
148.213
146.658
143.729
140.057
136.066
132.038
128.148
124.482
121.059
117.846
114.774
111.77
108.846
106.211
104.283
103.421
103.671
104.865
106.768
109.161
111.864
114.742
117.694
120.653
123.57
126.41
129.147
131.768
134.262
136.624
148.449
146.915
144.024
140.403
136.466
132.495
128.663
125.059
121.714
118.608
115.69
112.895
110.197
107.713
105.768
104.753
104.832
105.899
107.737
110.12
112.852
115.785
118.811
121.851
124.853
127.777
130.597
133.298
135.868
138.302
148.687
147.175
144.328
140.761
136.886
132.977
129.207
125.668
122.395
119.381
116.588
113.962
111.466
109.152
107.251
106.133
106.056
106.992
108.758
111.13
113.895
116.888
119.99
123.115
126.203
129.212
132.116
134.895
137.538
140.04
148.925
147.438
144.638
141.132
137.323
133.484
129.783
126.312
123.109
120.177
117.489
115.001
112.677
110.531
108.715
107.541
107.322
108.132
109.826
112.188
114.991
118.054
121.244
124.466
127.654
130.762
133.76
136.628
139.355
141.934
149.161
147.701
144.953
141.514
137.778
134.015
130.388
126.99
123.861
121.006
118.408
116.035
113.854
111.861
110.149
108.964
108.628
109.309
110.924
113.271
116.118
119.265
122.56
125.898
129.205
132.431
135.544
138.521
141.35
144.025
149.394
147.964
145.272
141.905
138.25
134.568
131.023
127.704
124.651
121.873
119.358
117.083
115.019
113.158
111.555
110.39
109.962
110.512
112.036
114.358
117.251
120.49
123.907
127.38
130.826
134.19
137.439
140.546
143.499
146.289
149.623
148.225
145.595
142.306
138.737
135.144
131.687
128.453
125.481
122.782
120.346
118.157
116.192
114.443
112.94
111.814
111.32
111.737
113.151
115.434
118.364
121.7
125.249
128.875
132.479
136.003
139.408
142.667
145.763
148.689
149.847
148.483
145.919
142.714
139.238
135.742
132.379
129.236
126.351
123.733
121.377
119.268
117.389
115.733
114.319
113.239
112.701
112.988
114.273
116.491
119.439
122.866
126.556
130.348
134.131
137.836
141.419
144.849
148.108
151.188
150.064
148.737
146.243
143.129
139.753
136.359
133.097
130.051
127.259
124.727
122.452
120.42
118.62
117.043
115.705
114.671
114.106
114.271
115.406
117.529
120.465
123.969
127.798
131.766
135.743
139.647
143.428
147.049
150.491
153.741
150.273
148.985
146.567
143.549
140.279
136.994
133.84
130.898
128.203
125.763
123.572
121.618
119.891
118.385
117.111
116.12
115.537
115.596
116.561
118.548
121.44
124.993
128.95
133.097
137.277
141.396
145.391
149.221
152.86
156.297
150.473
149.226
146.889
143.973
140.816
137.647
134.607
131.773
129.181
126.837
124.734
122.86
121.206
119.765
118.548
117.593
117
116.965
117.757
119.572
122.368
125.934
130.003
134.324
138.715
143.058
147.281
151.334
155.186
158.823
150.663
149.46
147.208
144.4
141.363
138.316
135.395
132.676
130.192
127.948
125.937
124.147
122.566
121.189
120.023
119.101
118.5
118.383
119.006
120.621
123.276
126.805
130.952
135.441
140.047
144.628
149.095
153.387
157.469
161.323
150.842
149.686
147.523
144.829
141.918
138.999
136.203
133.604
131.232
129.093
127.178
125.474
123.969
122.657
121.542
120.649
120.043
119.854
120.314
121.702
124.166
127.614
131.806
136.445
141.271