/*--------------------------------*- C++ -*----------------------------------*\
| =========                 |                                                 |
| \\      /  F ield         | OpenFOAM: The Open Source CFD Toolbox           |
|  \\    /   O peration     | Version:  2312                                  |
|   \\  /    A nd           | Website:  www.openfoam.com                      |
|    \\/     M anipulation  |                                                 |
\*---------------------------------------------------------------------------*/
FoamFile
{
    version     2.0;
    format      ascii;
    arch        "LSB;label=32;scalar=64";
    class       volScalarField;
    location    "20000";
    object      T;
}
// * * * * * * * * * * * * * * * * * * * * * * * * * * * * * * * * * * * * * //

dimensions      [0 0 0 1 0 0 0];

internalField   nonuniform List<scalar> 
29400
(
315.521
315.578
315.619
315.632
315.646
315.682
315.705
315.736
315.765
315.791
315.81
315.825
315.846
315.866
315.883
315.901
315.918
315.934
315.946
315.953
315.959
315.967
315.974
315.983
315.993
316.003
316.011
316.018
316.023
316.028
310.62
310.788
310.902
310.943
310.963
311.014
311.077
311.176
311.26
311.343
311.4
311.441
311.498
311.555
311.604
311.653
311.706
311.756
311.794
311.813
311.829
311.85
311.871
311.893
311.923
311.953
311.977
311.997
312.013
312.03
306.153
306.404
306.569
306.633
306.673
306.743
306.834
306.847
306.949
307.079
307.174
307.226
307.302
307.379
307.448
307.517
307.595
307.671
307.753
307.839
307.868
307.865
307.866
307.881
307.924
307.972
308.008
308.038
308.06
308.089
302.722
302.991
303.168
303.24
303.287
303.371
303.306
303.363
303.487
303.564
303.681
303.817
303.888
303.927
303.938
303.982
304.063
304.14
304.223
304.313
304.403
304.474
304.492
304.492
304.477
304.513
304.565
304.603
304.619
304.639
300.587
300.806
300.951
301.007
301.047
300.995
301.066
301.078
301.054
301.137
301.201
301.287
301.376
301.464
301.566
301.593
301.567
301.589
301.632
301.705
301.785
301.866
301.937
301.963
301.967
301.952
301.981
302.021
302.067
302.092
299.465
299.61
299.693
299.718
299.748
299.725
299.711
299.726
299.716
299.706
299.824
299.876
299.857
299.894
299.962
300.026
300.077
300.087
300.081
300.073
300.118
300.179
300.249
300.304
300.319
300.32
300.306
300.325
300.354
300.387
298.898
298.948
298.966
298.934
298.913
298.887
298.923
298.937
298.927
298.922
298.919
298.97
299.031
299.051
299.034
299.056
299.096
299.128
299.149
299.152
299.138
299.164
299.205
299.254
299.293
299.303
299.304
299.292
299.305
299.327
298.554
298.542
298.482
298.442
298.425
298.435
298.425
298.434
298.462
298.464
298.463
298.454
298.485
298.513
298.544
298.553
298.554
298.588
298.608
298.617
298.61
298.599
298.604
298.628
298.658
298.686
298.693
298.694
298.686
298.695
298.315
298.287
298.228
298.202
298.191
298.206
298.201
298.212
298.221
298.219
298.223
298.217
298.21
298.225
298.238
298.249
298.25
298.264
298.281
298.294
298.305
298.308
298.306
298.3
298.312
298.327
298.344
298.35
298.349
298.346
298.166
298.141
298.101
298.085
298.079
298.077
298.087
298.085
298.086
298.095
298.091
298.097
298.095
298.093
298.101
298.105
298.106
298.109
298.117
298.126
298.132
298.137
298.141
298.142
298.141
298.147
298.154
298.158
298.163
298.165
298.08
298.063
298.039
298.033
298.033
298.031
298.031
298.03
298.036
298.039
298.039
298.038
298.039
298.036
298.039
298.043
298.047
298.048
298.047
298.051
298.055
298.061
298.063
298.064
298.062
298.064
298.067
298.072
298.074
298.075
298.036
298.026
298.014
298.012
298.012
298.012
298.01
298.013
298.014
298.014
298.016
298.014
298.014
298.014
298.014
298.017
298.02
298.02
298.02
298.02
298.022
298.025
298.027
298.028
298.027
298.027
298.028
298.029
298.031
298.032
298.014
298.01
298.005
298.004
298.004
298.004
298.004
298.003
298.004
298.004
298.005
298.005
298.005
298.005
298.005
298.006
298.007
298.008
298.008
298.008
298.008
298.009
298.01
298.011
298.011
298.011
298.011
298.012
298.013
298.014
298.005
298.003
298.001
298.001
298.001
298.001
298.001
298.001
298.001
298.001
298.002
298.002
298.002
298.002
298.002
298.002
298.003
298.003
298.003
298.003
298.003
298.003
298.004
298.004
298.005
298.005
298.004
298.005
298.005
298.005
298.002
298.001
298
298
298
298
298
298
298
298
298.001
298.001
298.001
298.001
298.001
298.001
298.001
298.001
298.001
298.001
298.001
298.001
298.001
298.002
298.002
298.002
298.002
298.002
298.002
298.002
298.001
298
298
298
298
298
298
298
298
298
298
298
298
298
298
298
298
298
298
298
298
298
298
298.001
298.001
298.001
298.001
298.001
298.001
298.001
298
298
298
298
298
298
298
298
298
298
298
298
298
298
298
298
298
298
298
298
298
298
298
298
298
298
298
298
298
298
298
298
298
298
298
298
298
298
298
298
298
298
298
298
298
298
298
298
298
298
298
298
298
298
298
298
298
298
298
298
298
298
298
298
298
298
298
298
298
298
298
298
298
298
298
298
298
298
298
298
298
298
298
298
298
298
298
298
298
298
298
298
298
298
298
298
298
298
298
298
298
298
298
298
298
298
298
298
298
298
298
298
298
298
298
298
298
298
298
298
298
298
298
298
298
298
298
298
298
298
298
298
298
298
298
298
298
298
298
298
298
298
298
298
298
298
298
298
298
298
298
298
298
298
298
298
298
298
298
298
298
298
298
298
298
298
298
298
298
298
298
298
298
298
298
298
298
298
298
298
298
298
298
298
298
298
298
298
298
298
298
298
298
298
298
298
298
298
298
298
298
298
298
298
298
298
298
298
298
298
298
298
298
298
298
298
298
298
298
298
298
298
298
298
298
298
298
298
298
298
298
298
298
298
298
298
298
298
298
298
298
298
298
298
298
298
298
298
298
298
298
298
298
298
298
298
298
298
298
298
298
298
298
298
298
298
298
298
298
298
298
298
298
298
298
298
298
298
298
298
298
298
298
298
298
298
298
298
298
298
298
298
298
298
298
298
298
298
298
298
298
298
298
298
298
298
298
298
298
298
298
298
298
298
298
298
298
298
298
298
298
298
298
298
298
298
298
298
298
298
298
298
298
298
298
298
298
298
298
298
298
298
298
298
298
298
298
298
298
298
298
298
298
298
298
298
298
298
298
298
298
298
298
298
298
298
298
298
298
298
298
298
298
298
298
298
298
298
298
298
298
298
298
298
298
298
298
298
298
298
298
298
298
298
298
298
298
298
298
298
298
298
298
298
298
298
298
298
298
298
298
298
298
298
298
298
298
298
298
298
298
298
298
298
298
298
298
298
298
298
298
298
298
298
298
298
298
298
298
298
298
298
298
298
298
298
298
298
298
298
298
298
298
298
298
298
298
298
298
298
298
298
298
298
298
298
298
298
298
298
298
298
298
298
298
298
298
298
298
298
298
298
298
298
298
298
298
298
298
298
298
298
298
298
298
298
298
298
298
298
298
298
298
298
298
298
298
298
298
298
298
298
298
298
298
298
298
298
298
298
298
298
298
298
298
298
298
298
298
298
298
298
298
298
298
298
298
298
298
298
298
298
298
298
298
298
298
298
298
298
298
298
298
298
298
298
298
298
298
298
298
298
298
298
298
298
298
298
298
298
298
298
298
298
298
298
298
298
298
298
298
298
298
298
298
298
298
298
298
298
298
298
298
298
298
298
298
298
298
298
298
298
298
298
298
298
298
298
298
298
298
298
298
298
298
298
298
298
298
298
298
298
298
298
298
298
298
298
298
298
298
298
298
298
298
298
298
298
298
298
298
298
298
298
298
298
298
298
298
298
298
298
298
298
298
298
298
298
298
298
298
298
298
298
298
298
298
298
298
298
298
298
298
298
298
298
298
298
298
298
298
298
298
298
298
298
298
298
298
298
298
298
298
298
298
298
298
298
298
298
298
298
298
298
298
298
298
298
298
298
298
298
298
298
298
298
298
298
298
298
298
298
298
298
298
298
298
298
298
298
298
298
298
298
298
298
298
298
298
298
298
298
298
298
298
298
298
298
298
298
298
298
298
298
298
298
298
298
298
298
298
298
298
298
298
298
298
298
298
298
298
298
298
298
298
298
298
298
298
298
298
298
298
298
298
298
298
298
298
298
298
298
298
298
298
298
298
298
298
298
298
298
298
298
298
298
298
298
298
298
298
298
298
298
298
298
298
298
298
298
298
298
298
298
298
298
298
298
298
298
298
298
298
298
298
298
298
298
298
298
298
298
298
298
298
298
298
298
298
298
298
298
298
298
298
298
298
298
298
298
298
298
298
298
298
298
298
298
298
298
298
298
298
298
298
298
298
298
298
298
298
298
298
298
298
298
298
298
298
298
298
298
298
298
298
298
298
298
298
298
298
298
298
298
298
298
298
298
298
298
298
298
298
298
298
298
298
298
298
298
298
298
298
298
298
298
298
298
298
298
298
298
298
298
298
298
298
298
298
298
298
298
298
298
298
298
298
298
298
298
298
298
298
298
298
298
298
298
298
298
298
298
298
298
298
298
298
298
298
298
298
298
298
298
298
298
298
298
298
298
298
298
298
298
298
298
298
298
298
298
298
298
298
298
298
298
298
298
298
298
298
298
298
298
298
298
298
298
298
298
298
298
298
298
298
298
298
298
298
298
298
298
298
298
298
298
298
298
298
298
298
298
298
298
298
298
298
298
298
298
298
298
298
298
298
298
298
298
298
298
298
298
298
298
298
298
298
298
298
298
298
298
298
298
298
298
298
298
298
298
298
298
298
298
298
298
298
298
298
298
298
298
298
298
298
298
298
298
298
298
298
298
298
298
298
298
298
298
298
298
298
298
298
298
298
298
298
298
298
298
298
298
298
298
298
298
298
298
298
298
298
298
298
298
298
298
298
298
298
298
298
298
298
298
298
298
298
298
298
298
298
298
298
298
298
298
298
298
298
298
298
298
298
298
298
298
298
298
298
298
298
298
298
298
298
298
298
298
298
298
298
298
298
298
298
298
298
298
298
298
298
298
298
298
298
298
298
298
298
298
298
298
298
298
298
298
298
298
298
298
298
298
298
298
298
298
298
298
298
298
298
298
298
298
298
298
298
298
298
298
298
298
298
298
298
298
298
298
298
298
298
298
298
298
298
298
298
298
298
298
298
298
298
298
298
298
298
298
298
298
298
298
298
298
298
298
298
298
298
298
298
298
298
298
298
298
298
298
298
298
298
298
298
298
298
298
298
298
298
298
298
298
298
298
298
298
298
298
298
298
298
298
298
298
298
298
298
298
298
298
298
298
298
298
298
298
298
298
298
298
298
298
298
298
298
298
298
298
298
298
298
298
298
298
298
298
298
298
298
298
298
298
298
298
298
298
298
298
298
298
298
298
298
298
298
298
298
298
298
298
298
298
298
298
298
298
298
298
298
298
298
298
298
298
298
298
298
298
298
298
298
298
298
298
298
298
298
298
298
298
298
298
298
298
298
298
298
298
298
298
298
298
298
298
298
298
298
298
298
298
298
298
298
298
298
298
298
298
298
298
298
298
298
298
298
298
298
298
298
298
298
298
298
298
298
298
298
298
298
298
298
298
298
298
298
298
298
298
298
298
298
298
298
298
298
298
298
298
298
298
298
298
298
298
298
298
298
298
298
298
298
298
298
298
298
298
298
298
298
298
298
298
298
298
298
298
298
298
298
298
298
298
298
298
298
298
298
298
298
298
298
298
298
298
298
298
298
298
298
298
298
298
298
298
298
298
298
298
298
298
298
298
298
298
298
298
298
298
298
298
298
298
298
298
298
298
298
298
298
298
298
298
298
298
298
298
298
298
298
298
298
298
298
298
298
298
298
298
298
298
298
298
298
298
298
298
298
298
298
298
298
298
298
298
298
298
298
298
298
298
298
298
298
298
298
298
298
298
298
298
298
298
298
298
298
298
298
298
298
298
298
298
298
298
298
298
298
298
298
298
298
298
298
298
298
298
298
298
298
298
298
298
298
298
298
298
298
298
298
298
298
298
298
298
298
298
298
298
298
298
298
298
298
298
298
298
298
298
298
298
298
298
298
298
298
298
298
298
298
298
298
298
298
298
298
298
298
298
298
298
298
298
298
298
298
298
298
298
298
298
298
298
298
298
298
298
298
298
298
298
298
298
298
298
298
298
298
298
298
298
298
298
298
298
298
298
298
298
298
298
298
298
298
298
298
298
298
298
298
298
298
298
298
298
298
298
298
298
298
298
298
298
298
298
298
298
298
298
298
298
298
298
298
298
298
298
298
298
298
298
298
298
298
298
298
298
298
298
298
298
298
298
298
298
298
298
298
298
298
298
298
298
298
298
298
298
298
298
298
298
298
298
298
298
298
298
298
298
298
298
298
298
298
298
298
298
298
298
298
298
298
298
298
298
298
298
298
298
298
298
298
298
298
298
298
298
298
298
298
298
298
298
298
298
298
298
298
298
298
298
298
298
298
298
298
298
298
298
298
298
298
298
298
298
298
298
298
298
298
298
298
298
298
298
298
298
298
298
298
298
298
298
298
298
298
298
298
298
298
298
298
298
298
298
298
298
298
298
298
298
298
298
298
298
298
298
298
298
298
298
298
298
298
298
298
298
298
298
298
298
298
298
298
298
298
298
298
298
298
298
298
298
298
298
298
298
298
298
298
298
298
298
298
298
298
298
298
298
298
298
298
298
298
298
298
298
298
298
298
298
298
298
298
298
298
298
298
298
298
298
298
298
298
298
298
298
298
298
298
298
298
298
298
298
298
298
298
298
298
298
298
298
298
298
298
298
298
298
298
298
298
298
298
298
298
298
298
298
298
298
298
298
298
298
298
298
298
298
298
298
298
298
298
298
298
298
298
298
298
298
298
298
298
298
298
298
298
298
298
298
298
298
298
298
298
298
298
298
298
298
298
298
298
298
298
298
298
298
298
298
298
298
298
298
298
298
298
298
298
298
298
298
298
298
298
298
298
298
298
298
298
298
298
298
298
298
298
298
298
298
298
298
298
298
298
298
298
298
298
298
298
298
298
298
298
298
298
298
298
298
298
298
298
298
298
298
298
298
298
298
298
298
298
298
298
298
298
298
298
298
298
298
298
298
298
298
298
298
298
298
298
298
298
298
298
298
298
298
298
298
298
298
298
298
298
298
298
298
298
298
298
298
298
298
298
298
298
298
298
298
298
298
298
298
298
298
298
298
298
298
298
298
298
298
298
298
298
298
298
298
298
298
298
298
298
298
298
298
298
298
298
298
298
298
298
298
298
298
298
298
298
298
298
298
298
298
298
298
298
298
298
298
298
298
298
298
298
298
298
298
298
298
298
298
298
298
298
298
298
298
298
298
298
298
298
298
298
298
298
298
298
298
298
298
298
298
298
298
298
298
298
298
298
298
298
298
298
298
298
298
298
298
298
298
298
298
298
298
298
298
298
298
298
298
298
298
298
298
298
298
298
298
298
298
298
298
298
298
298
298
298
298
298
298
298
298
298
298
298
298
298
298
298
298
298
298
298
298
298
298
298
298
298
298
298
298
298
298
298
298
298
298
298
298
298
298
298
298
298
298
298
298
298
298
298
298
298
298
298
298
298
298
298
298
298
298
298
298
298
298
298
298
298
298
298
298
298
298
298
298
298
298
298
298
298
298
298
298
298
298
298
298
298
298
298
298
298
298
298
298
298
298
298
298
298
298
298
298
298
298
298
298
298
298
298
298
298
298
298
298
298
298
298
298
298
298
298
298
298
298
298
298
298
298
298
298
298
298
298
298
298
298
298
298
298
298
298
298
298
298
298
298
298
298
298
298
298
298
298
298
298
298
298
298
298
298
298
298
298
298
298
298
298
298
298
298
298
298
298
298
298
298
298
298
298
298
298
298
298
298
298
298
298
298
298
298
298
298
298
298
298
298
298
298
298
298
298
298
298
298
298
298
298
298
298
298
298
298
298
298
298
298
298
298
298
298
298
298
298
298
298
298
298
298
298
298
298
298
298
298
298
298
298
298
298
298
298
298
298
298
298
298
298
298
298
298
298
298
298
298
298
298
298
298
298
298
298
298
298
298
298
298
298
298
298
298
298
298
298
298
298
298
298
298
298
298
298
298
298
298
298
298
298
298
298
298
298
298
298
298
298
298
298
298
298
298
298
298
298
298
298
298
298
298
298
298
298
298
298
298
298
298
298
298
298
298
298
298
298
298
298
298
298
298
298
298
298
298
298
298
298
298
298
298
298
298
298
298
298
298
298
298
298
298
298
298
298
298
298
298
298
298
298
298
298
298
298
298
298
298
298
298
298
298
298
298
298
298
298
298
298
298
298
298
298
298
298
298
298
298
298
298
298
298
298
298
298
298
298
298
298
298
298
298
298
298
298
298
298
298
298
298
298
298
298
298
298
298
298
298
298
298
298
298
298
298
298
298
298
298
298
298
298
298
298
298
298
298
298
298
298
298
298
298
298
298
298
298
298
298
298
298
298
298
298
298
298
298
298
298
298
298
298
298
298
298
298
298
298
298
298
298
298
298
298
298
298
298
298
298
298
298
298
298
298
298
298
298
298
298
298
298
298
298
298
298
298
298
298
298
298
298
298
298
298
298
298
298
298
298
298
298
298
298
298
298
298
298
298
298
298
298
298
298
298
298
298
298
298
298
298
298
298
298
298
298
298
298
298
298
298
298
298
298
298
298
298
298
298
298
298
298
298
298
298
298
298
298
298
298
298
298
298
298
298
298
298
298
298
298
298
298
298
298
298
298
298
298
298
298
298
298
298
298
298
298
298
298
298
298
298
298
298
298
298
298
298
298
298
298
298
298
298
298
298
298
298
298
298
298
298
298
298
298
298
298
298
298
298
298
298
298
298
298
298
298
298
298
298
298
298
298
298
298
298
298
298
298
298
298
298
298
298
298
298
298
298
298
298
298
298
298
298
298
298
298
298
298
298
298
298
298
298
298
298
298
298
298
298
298
298
298
298
298
298
298
298
298
298
298
298
298
298
298
298
298
298
298
298
298
298
298
298
298
298
298
298
298
298
298
298
298
298
298
298
298
298
298
298
298
298
298
298
298
298
298
298
298
298
298
298
298
298
298
298
298
298
298
298
298
298
298
298
298
298
298
298
298
298
298
298
298
298
298
298
298
298
298
298
298
298
298
298
298
298
298
298
298
298
298
298
298
298
298
298
298
298
298
298
298
298
298
298
298
298
298
298
298
298
298
298
298
298
298
298
298
298
298
298
298
298
298
298
298
298
298
298
298
298
298
298
298
298
298
298
298
298
298
298
298
298
298
298
298
298
298
298
298
298
298
298
298
298
298
298
298
298
298
298
298
298
298
298
298
298
298
298
298
298
298
298
298
298
298
298
298
298
298
298
298
298
298
298
298
298
298
298
298
298
298
298
298
298
298
298
298
298
298
298
298
298
298
298
298
298
298
298
298
298
298
298
298
298
298
298
298
298
298
298
298
298
298
298
298
298
298
298
298
298
298
298
298
298
298
298
298
298
298
298
298
298
298
298
298
298
298
298
298
298
298
298
298
298
298
298
298
298
298
298
298
298
298
298
298
298
298
298
298
298
298
298
298
298
298
298
298
298
298
298
298
298
298
298
298
298
298
298
298
298
298
298
298
298
298
298
298
298
298
298
298
298
298
298
298
298
298
298
298
298
298
298
298
298
298
298
298
298
298
298
298
298
298
298
298
298
298
298
298
298
298
298
298
298
298
298
298
298
298
298
298
298
298
298
298
298
298
298
298
298
298
298
298
298
298
298
298
298
298
298
298
298
298
298
298
298
298
298
298
298
298
298
298
298
298
298
298
298
298
298
298
298
298
298
298
298
298
298
298
298
298
298
298
298
298
298
298
298
298
298
298
298
298
298
298
298
298
298
298
298
298
298
298
298
298
298
298
298
298
298
298
298
298
298
298
298
298
298
298
298
298
298
298
298
298
298
298
298
298
298
298
298
298
298
298
298
298
298
298
298
298
298
298
298
298
298
298
298
298
298
298
298
298
298
298
298
298
298
298
298
298
298
298
298
298
298
298
298
298
298
298
298
298
298
298
298
298
298
298
298
298
298
298
298
298
298
298
298
298
298
298
298
298
298
298
298
298
298
298
298
298
298
298
298
298
298
298
298
298
298
298
298
298
298
298
298
298
298
298
298
298
298
298
298
298
298
298
298
298
298
298
298
298
298
298
298
298
298
298
298
298
298
298
298
298
298
298
298
298
298
298
298
298
298
298
298
298
298
298
298
298
298
298
298
298
298
298
298
298
298
298
298
298
298
298
298
298
298
298
298
298
298
298
298
298
298
298
298
298
298
298
298
298
298
298
298
298
298
298
298
298
298
298
298
298
298
298
298
298
298
298
298
298
298
298
298
298
298
298
298
298
298
298
298
298
298
298
298
298
298
298
298
298
298
298
298
298
298
298
298
298
298
298
298
298
298
298
298
298
298
298
298
298
298
298
298
298
298
298
298
298
298
298
298
298
298
298
298
298
298
298
298
298
298
298
298
298
298
298
298
298
298
298
298
298
298
298
298
298
298
298
298
298
298
298
298
298
298
298
298
298
298
298
298
298
298
298
298
298
298
298
298
298
298
298
298
298
298
298
298
298
298
298
298
298
298
298
298
298
298
298
298
298
298
298
298
298
298
298
298
298
298
298
298
298
298
298
298
298
298
298
298
298
298
298
298
298
298
298
298
298
298
298
298
298
298
298
298
298
298
298
298
298
298
298
298
298
298
298
298
298
316.035
316.042
316.049
316.056
316.062
316.067
316.073
316.081
316.088
316.097
316.106
316.114
316.123
316.131
316.138
316.146
316.154
316.162
316.17
316.178
316.186
316.195
316.203
316.212
316.221
316.23
316.239
316.249
316.258
316.267
316.276
316.285
316.294
316.304
316.313
316.322
316.331
316.34
316.349
316.358
316.367
316.375
316.384
316.393
316.401
316.41
316.418
316.427
316.435
316.443
316.451
316.459
316.467
316.474
316.482
316.489
316.496
316.503
316.51
316.517
316.524
316.53
316.537
316.543
316.549
316.556
316.562
316.569
316.575
316.581
316.588
316.594
316.601
316.607
316.613
316.62
316.626
316.631
316.637
316.642
316.647
316.651
316.655
316.658
316.661
316.664
316.666
316.668
316.67
316.672
316.675
316.676
316.678
316.68
316.682
316.684
316.686
316.69
316.695
316.703
316.712
316.722
316.733
316.743
316.754
316.766
316.777
316.79
316.803
316.818
316.833
316.848
316.864
316.879
316.895
316.911
316.927
316.944
316.96
316.977
316.994
317.011
317.028
317.044
317.06
317.076
317.091
317.107
317.123
317.139
317.155
317.171
317.186
317.2
317.215
317.229
317.244
317.258
317.273
317.287
317.3
317.313
317.326
317.339
317.352
317.364
317.376
317.388
317.4
317.411
317.423
317.434
317.445
317.455
317.466
317.476
317.487
317.497
317.506
317.515
317.525
317.534
317.543
317.551
317.559
317.568
317.576
317.584
317.591
317.598
317.605
317.612
317.619
317.625
317.631
317.637
317.643
317.648
317.655
317.662
312.05
312.07
312.093
312.115
312.134
312.148
312.164
312.185
312.208
312.233
312.259
312.285
312.311
312.335
312.358
312.381
312.404
312.429
312.454
312.479
312.503
312.527
312.552
312.578
312.605
312.632
312.66
312.687
312.715
312.742
312.77
312.797
312.825
312.852
312.88
312.907
312.934
312.961
312.988
313.015
313.042
313.068
313.095
313.121
313.147
313.173
313.198
313.223
313.248
313.273
313.297
313.321
313.344
313.367
313.39
313.412
313.434
313.456
313.477
313.498
313.518
313.538
313.558
313.578
313.597
313.617
313.637
313.656
313.676
313.695
313.715
313.735
313.754
313.774
313.793
313.812
313.831
313.848
313.866
313.882
313.897
313.91
313.921
313.931
313.94
313.949
313.955
313.961
313.968
313.975
313.982
313.988
313.993
313.999
314.007
314.013
314.019
314.029
314.046
314.069
314.096
314.126
314.157
314.19
314.223
314.256
314.291
314.328
314.368
314.411
314.456
314.502
314.549
314.596
314.643
314.691
314.74
314.789
314.84
314.89
314.941
314.992
315.043
315.093
315.141
315.188
315.235
315.283
315.332
315.381
315.429
315.477
315.522
315.565
315.608
315.652
315.696
315.741
315.785
315.827
315.867
315.906
315.946
315.985
316.025
316.064
316.1
316.135
316.17
316.206
316.242
316.276
316.308
316.34
316.372
316.404
316.436
316.466
316.495
316.523
316.551
316.58
316.607
316.632
316.657
316.682
316.707
316.731
316.753
316.775
316.797
316.818
316.839
316.858
316.876
316.894
316.912
316.928
316.947
316.97
308.119
308.151
308.189
308.225
308.259
308.276
308.297
308.331
308.365
308.405
308.446
308.488
308.529
308.568
308.604
308.638
308.674
308.713
308.753
308.793
308.831
308.869
308.909
308.949
308.991
309.034
309.077
309.121
309.165
309.209
309.252
309.296
309.34
309.384
309.428
309.472
309.515
309.559
309.602
309.646
309.689
309.732
309.775
309.817
309.86
309.902
309.944
309.985
310.026
310.067
310.107
310.147
310.186
310.224
310.263
310.3
310.338
310.374
310.41
310.446
310.481
310.515
310.549
310.583
310.617
310.651
310.685
310.719
310.753
310.787
310.821
310.855
310.89
310.923
310.956
310.989
311.021
311.052
311.082
311.11
311.136
311.159
311.18
311.198
311.215
311.23
311.243
311.255
311.267
311.281
311.294
311.304
311.314
311.325
311.339
311.351
311.363
311.381
311.409
311.446
311.49
311.538
311.588
311.639
311.692
311.745
311.801
311.86
311.924
311.992
312.064
312.137
312.212
312.287
312.362
312.439
312.518
312.598
312.679
312.762
312.844
312.927
313.011
313.092
313.17
313.247
313.325
313.404
313.485
313.565
313.645
313.725
313.8
313.872
313.944
314.017
314.091
314.165
314.239
314.31
314.377
314.443
314.509
314.576
314.643
314.707
314.768
314.827
314.887
314.948
315.008
315.066
315.121
315.175
315.228
315.283
315.337
315.388
315.437
315.485
315.533
315.581
315.627
315.67
315.712
315.754
315.797
315.838
315.876
315.913
315.95
315.986
316.021
316.054
316.085
316.115
316.146
316.173
316.205
316.244
304.656
304.69
304.734
304.781
304.834
304.901
304.934
304.931
304.946
304.988
305.035
305.083
305.131
305.178
305.22
305.256
305.294
305.341
305.39
305.439
305.487
305.534
305.58
305.628
305.677
305.728
305.779
305.832
305.884
305.937
305.99
306.044
306.097
306.151
306.204
306.258
306.312
306.367
306.421
306.475
306.53
306.584
306.638
306.693
306.747
306.802
306.856
306.911
306.965
307.019
307.072
307.126
307.179
307.231
307.284
307.336
307.387
307.438
307.489
307.539
307.589
307.639
307.688
307.737
307.787
307.837
307.887
307.937
307.987
308.038
308.088
308.138
308.188
308.237
308.286
308.334
308.381
308.426
308.47
308.512
308.551
308.587
308.619
308.648
308.676
308.702
308.725
308.747
308.768
308.791
308.813
308.832
308.849
308.869
308.891
308.913
308.934
308.963
309.003
309.053
309.11
309.171
309.234
309.299
309.366
309.434
309.504
309.578
309.658
309.743
309.832
309.924
310.017
310.111
310.206
310.303
310.402
310.504
310.608
310.713
310.819
310.926
311.033
311.138
311.239
311.34
311.443
311.548
311.654
311.76
311.867
311.973
312.074
312.171
312.268
312.367
312.467
312.568
312.669
312.766
312.858
312.949
313.04
313.132
313.225
313.315
313.399
313.482
313.565
313.65
313.735
313.816
313.893
313.968
314.044
314.12
314.197
314.269
314.338
314.406
314.473
314.542
314.607
314.668
314.728
314.788
314.848
314.906
314.961
315.014
315.066
315.117
315.167
315.214
315.258
315.3
315.345
315.383
315.43
315.485
302.108
302.104
302.13
302.162
302.202
302.247
302.294
302.348
302.362
302.36
302.392
302.431
302.471
302.513
302.553
302.575
302.599
302.645
302.696
302.747
302.796
302.843
302.888
302.933
302.979
303.026
303.074
303.124
303.174
303.225
303.277
303.328
303.381
303.434
303.487
303.541
303.595
303.65
303.706
303.761
303.817
303.874
303.931
303.989
304.047
304.106
304.165
304.225
304.284
304.345
304.405
304.466
304.526
304.588
304.649
304.71
304.771
304.832
304.893
304.955
305.016
305.078
305.14
305.202
305.265
305.329
305.394
305.459
305.524
305.589
305.655
305.72
305.786
305.85
305.914
305.977
306.038
306.098
306.157
306.214
306.267
306.317
306.364
306.408
306.451
306.493
306.531
306.567
306.604
306.641
306.678
306.711
306.742
306.776
306.813
306.847
306.882
306.925
306.978
307.039
307.106
307.176
307.248
307.322
307.396
307.473
307.551
307.634
307.722
307.816
307.914
308.015
308.116
308.219
308.323
308.43
308.54
308.652
308.767
308.883
309.001
309.12
309.24
309.357
309.471
309.586
309.703
309.823
309.944
310.067
310.191
310.314
310.432
310.546
310.661
310.778
310.898
311.018
311.139
311.255
311.366
311.477
311.589
311.702
311.816
311.926
312.03
312.133
312.237
312.342
312.449
312.55
312.647
312.742
312.838
312.935
313.032
313.124
313.212
313.299
313.385
313.473
313.556
313.635
313.712
313.789
313.867
313.942
314.013
314.081
314.149
314.216
314.281
314.341
314.399
314.454
314.511
314.562
314.622
314.694
300.422
300.43
300.422
300.427
300.452
300.481
300.518
300.562
300.609
300.621
300.615
300.638
300.666
300.7
300.741
300.795
300.81
300.81
300.843
300.882
300.924
300.963
301
301.036
301.072
301.108
301.146
301.185
301.226
301.267
301.309
301.352
301.395
301.439
301.484
301.53
301.577
301.624
301.672
301.721
301.77
301.821
301.872
301.925
301.978
302.032
302.087
302.143
302.2
302.257
302.315
302.375
302.434
302.495
302.556
302.618
302.68
302.743
302.807
302.871
302.936
303.002
303.069
303.137
303.207
303.277
303.349
303.421
303.494
303.567
303.641
303.715
303.789
303.863
303.936
304.008
304.079
304.149
304.219
304.286
304.351
304.413
304.473
304.531
304.589
304.646
304.7
304.752
304.805
304.858
304.911
304.96
305.008
305.06
305.113
305.165
305.219
305.28
305.346
305.417
305.49
305.566
305.643
305.722
305.801
305.882
305.965
306.052
306.144
306.241
306.342
306.445
306.549
306.654
306.762
306.871
306.984
307.099
307.216
307.335
307.455
307.577
307.701
307.821
307.939
308.059
308.182
308.307
308.435
308.564
308.695
308.825
308.95
309.073
309.197
309.325
309.454
309.586
309.718
309.845
309.967
310.09
310.215
310.342
310.47
310.593
310.712
310.829
310.948
311.069
311.191
311.309
311.421
311.531
311.644
311.757
311.871
311.98
312.084
312.187
312.29
312.394
312.494
312.588
312.681
312.774
312.868
312.959
313.044
313.127
313.209
313.291
313.37
313.444
313.514
313.581
313.652
313.714
313.788
313.876
299.351
299.378
299.388
299.392
299.384
299.398
299.418
299.446
299.481
299.518
299.527
299.522
299.538
299.56
299.591
299.63
299.671
299.685
299.685
299.711
299.741
299.772
299.802
299.83
299.858
299.886
299.915
299.946
299.977
300.01
300.043
300.078
300.113
300.149
300.185
300.223
300.261
300.299
300.339
300.379
300.42
300.463
300.507
300.551
300.597
300.644
300.691
300.74
300.789
300.84
300.892
300.945
300.999
301.054
301.11
301.167
301.225
301.283
301.343
301.404
301.467
301.53
301.595
301.66
301.727
301.795
301.863
301.932
302.003
302.074
302.146
302.218
302.291
302.364
302.437
302.51
302.583
302.654
302.726
302.797
302.866
302.934
303.002
303.069
303.136
303.203
303.267
303.33
303.393
303.458
303.522
303.586
303.648
303.711
303.774
303.838
303.907
303.98
304.055
304.131
304.209
304.288
304.367
304.448
304.53
304.613
304.697
304.785
304.877
304.975
305.076
305.179
305.282
305.386
305.493
305.602
305.712
305.825
305.94
306.057
306.175
306.295
306.416
306.535
306.653
306.772
306.894
307.019
307.146
307.275
307.405
307.535
307.662
307.787
307.914
308.045
308.177
308.312
308.447
308.578
308.705
308.834
308.965
309.097
309.232
309.363
309.489
309.614
309.742
309.872
310.004
310.131
310.253
310.374
310.497
310.622
310.748
310.869
310.985
311.1
311.215
311.332
311.445
311.552
311.657
311.764
311.871
311.974
312.073
312.168
312.263
312.357
312.449
312.534
312.616
312.694
312.777
312.849
312.936
313.039
298.708
298.724
298.744
298.758
298.76
298.753
298.76
298.774
298.794
298.82
298.848
298.855
298.851
298.863
298.882
298.907
298.938
298.969
298.984
298.99
299.008
299.03
299.053
299.075
299.098
299.121
299.144
299.169
299.195
299.222
299.25
299.279
299.308
299.339
299.371
299.403
299.435
299.469
299.503
299.537
299.573
299.608
299.645
299.682
299.721
299.76
299.799
299.84
299.883
299.927
299.972
300.018
300.065
300.113
300.163
300.213
300.263
300.316
300.369
300.425
300.481
300.539
300.597
300.656
300.717
300.778
300.84
300.902
300.966
301.031
301.096
301.162
301.229