/*--------------------------------*- C++ -*----------------------------------*\
| =========                 |                                                 |
| \\      /  F ield         | OpenFOAM: The Open Source CFD Toolbox           |
|  \\    /   O peration     | Version:  2312                                  |
|   \\  /    A nd           | Website:  www.openfoam.com                      |
|    \\/     M anipulation  |                                                 |
\*---------------------------------------------------------------------------*/
FoamFile
{
    version     2.0;
    format      ascii;
    arch        "LSB;label=32;scalar=64";
    class       volVectorField;
    location    "20000";
    object      U;
}
// * * * * * * * * * * * * * * * * * * * * * * * * * * * * * * * * * * * * * //

dimensions      [0 1 -1 0 0 0 0];

internalField   nonuniform List<vector> 
29400
(
(0.126086 1.09683e-18 -0.000852328)
(0.262108 -8.21726e-18 -0.000752406)
(0.396224 -7.60646e-18 -0.000287477)
(0.516408 -8.25322e-18 -0.000293957)
(0.630013 -2.07751e-17 -0.000196844)
(0.72834 -2.61888e-17 -0.000120797)
(0.812571 -5.33247e-18 -3.01528e-05)
(0.882856 -2.96257e-17 6.10844e-05)
(0.940581 -3.9077e-17 0.000145962)
(0.987532 -2.21293e-17 0.000225666)
(1.02544 -2.41393e-17 0.000298525)
(1.05592 -1.71495e-17 0.000362904)
(1.08034 -6.64136e-17 0.000419185)
(1.09988 -8.01396e-17 0.000466974)
(1.11548 2.48738e-17 0.000506776)
(1.12795 1.44205e-17 0.000538778)
(1.13789 -1.2291e-16 0.000563827)
(1.14581 1.24352e-17 0.000582601)
(1.15213 -3.09038e-18 0.000595298)
(1.15714 1.16891e-16 0.000603164)
(1.16112 5.47017e-17 0.000606492)
(1.16427 -1.91483e-16 0.000605432)
(1.16676 -6.4019e-17 0.000600261)
(1.16872 3.40175e-17 0.000593152)
(1.17026 1.70322e-17 0.00058542)
(1.17146 -1.32029e-16 0.000574402)
(1.17238 -1.40681e-16 0.000559476)
(1.1731 -1.54027e-16 0.000541466)
(1.17358 -1.24765e-16 0.000576548)
(1.17393 2.99335e-17 0.000583005)
(0.330603 1.33943e-17 -0.0218749)
(0.669097 -2.32713e-17 -0.0206222)
(1.01409 -3.10967e-17 -0.0192228)
(1.32541 -3.90945e-17 -0.019218)
(1.61703 -4.9864e-17 -0.0187815)
(1.87408 -4.25242e-17 -0.0181097)
(2.09705 -7.23961e-17 -0.0172459)
(2.28669 -8.23247e-17 -0.0162625)
(2.44582 -1.0157e-16 -0.0152538)
(2.57828 -7.89983e-17 -0.0142715)
(2.68793 -7.26296e-17 -0.013346)
(2.77844 -8.21063e-17 -0.0124953)
(2.85304 -9.22123e-17 -0.0117235)
(2.91453 -9.40951e-17 -0.0110314)
(2.96525 -8.6209e-17 -0.0104146)
(3.00714 -7.10418e-17 -0.00986799)
(3.04179 -1.80454e-16 -0.00938466)
(3.07052 -1.42982e-16 -0.00895786)
(3.09439 -7.08418e-17 -0.00858215)
(3.11427 1.31953e-17 -0.0082503)
(3.13085 -3.51866e-17 -0.00795739)
(3.14473 -3.62362e-17 -0.00769994)
(3.15637 -1.39178e-17 -0.00747426)
(3.16616 2.41412e-18 -0.00727466)
(3.17442 3.20759e-17 -0.00709703)
(3.1814 -1.01478e-16 -0.00694017)
(3.18732 -1.44268e-16 -0.00680407)
(3.19237 -2.09594e-16 -0.00667957)
(3.19666 -1.35599e-16 -0.00655147)
(3.20035 -4.46483e-17 -0.00656632)
(0.480012 3.92007e-17 -0.0602045)
(0.955819 -2.57739e-17 -0.0566857)
(1.45335 -7.8958e-17 -0.0543614)
(1.90456 -9.44457e-17 -0.0542611)
(2.32487 -6.49749e-17 -0.0533597)
(2.69958 -7.52675e-17 -0.0518682)
(3.0283 -1.09965e-16 -0.049883)
(3.31215 -1.19384e-16 -0.0476011)
(3.55454 -9.75543e-17 -0.0452214)
(3.76008 -1.39899e-16 -0.0428687)
(3.93363 -1.0395e-16 -0.0406221)
(4.07984 -1.0803e-16 -0.0385279)
(4.20294 -1.10972e-16 -0.0366031)
(4.30663 -9.60071e-17 -0.0348527)
(4.39407 -1.0085e-16 -0.0332703)
(4.46796 -1.06305e-16 -0.0318465)
(4.53052 -6.60457e-17 -0.0305677)
(4.58364 -1.62372e-16 -0.0294201)
(4.62886 -1.391e-16 -0.0283914)
(4.66745 -9.53651e-17 -0.0274675)
(4.70049 -7.6404e-17 -0.0266376)
(4.72885 -6.65706e-17 -0.0258939)
(4.75327 -8.96443e-17 -0.0252273)
(4.77436 -7.54369e-17 -0.0246283)
(4.79262 -6.1718e-17 -0.0240898)
(4.80847 -5.86063e-17 -0.0236061)
(4.82229 -6.7703e-17 -0.0231728)
(4.83437 -6.27866e-17 -0.0227815)
(4.84499 -7.10215e-17 -0.0224152)
(4.85437 -6.00229e-17 -0.0221142)
(0.565396 5.60039e-17 -0.112698)
(1.12205 -4.23309e-17 -0.105062)
(1.7141 -8.00908e-17 -0.101499)
(2.25286 -1.07665e-16 -0.101063)
(2.75312 -1.40482e-16 -0.099574)
(3.20226 -1.46403e-16 -0.0971397)
(3.59991 -1.34605e-16 -0.0938663)
(3.94749 -1.36209e-16 -0.0900757)
(4.2485 -1.8267e-16 -0.0860774)
(4.5077 -2.01535e-16 -0.0820812)
(4.73011 -1.65351e-16 -0.0782265)
(4.92063 -1.77808e-16 -0.0745974)
(5.08378 -1.41981e-16 -0.0712319)
(5.2236 -1.51885e-16 -0.0681456)
(5.34358 -1.41137e-16 -0.0653348)
(5.44674 -1.32647e-16 -0.062788)
(5.53562 -1.26753e-16 -0.0604865)
(5.61239 -1.01974e-16 -0.0584099)
(5.67888 -1.29178e-16 -0.0565387)
(5.73661 -1.67999e-16 -0.054851)
(5.78688 -1.56569e-16 -0.0533294)
(5.83076 -4.90214e-17 -0.0519559)
(5.86914 -9.46707e-17 -0.0507158)
(5.9028 -1.29204e-16 -0.0495966)
(5.93239 -9.96957e-17 -0.0485872)
(5.95848 -7.50923e-17 -0.0476784)
(5.98155 -1.08289e-16 -0.0468611)
(6.00199 -1.16602e-16 -0.0461267)
(6.02019 -9.35659e-17 -0.0454675)
(6.03642 -1.40862e-16 -0.0448732)
(0.597511 6.71789e-17 -0.174034)
(1.19537 -4.75256e-17 -0.161222)
(1.83654 -1.10183e-16 -0.15628)
(2.42113 -1.2925e-16 -0.155429)
(2.96301 -1.69344e-16 -0.153365)
(3.45131 -1.72349e-16 -0.150028)
(3.88623 -2.02441e-16 -0.145518)
(4.26943 -1.98159e-16 -0.140269)
(4.60447 -1.96142e-16 -0.134692)
(4.89599 -1.67861e-16 -0.129079)
(5.14894 -1.67788e-16 -0.12363)
(5.36816 -1.36914e-16 -0.11847)
(5.55815 -1.42545e-16 -0.11366)
(5.72294 -1.31952e-16 -0.109228)
(5.86608 -1.37162e-16 -0.105175)
(5.99065 -1.73443e-16 -0.101487)
(6.09929 -1.79083e-16 -0.0981425)
(6.19424 -1.52265e-16 -0.095115)
(6.27743 -1.23049e-16 -0.0923785)
(6.35049 -1.43623e-16 -0.0899045)
(6.41481 -1.51777e-16 -0.0876687)
(6.47157 -1.75552e-16 -0.0856491)
(6.52177 -1.32885e-16 -0.0838224)
(6.56628 -1.26483e-16 -0.0821682)
(6.60583 -1.48463e-16 -0.0806724)
(6.64103 -1.54454e-16 -0.0793229)
(6.67244 -1.3657e-16 -0.078107)
(6.7005 -1.31844e-16 -0.0770151)
(6.72564 -1.56404e-16 -0.0760433)
(6.74822 -1.56685e-16 -0.0751485)
(0.60164 5.08325e-17 -0.240283)
(1.21822 -1.0384e-16 -0.22182)
(1.88178 -1.52769e-16 -0.216081)
(2.48726 -1.81937e-16 -0.214966)
(3.04777 -1.97339e-16 -0.212434)
(3.55356 -2.23944e-16 -0.208298)
(4.00543 -2.35262e-16 -0.202663)
(4.40529 -2.00236e-16 -0.196069)
(4.75673 -1.82464e-16 -0.18902)
(5.06437 -1.47409e-16 -0.181885)
(5.33307 -1.65802e-16 -0.174923)
(5.56757 -2.30729e-16 -0.168296)
(5.77227 -2.53286e-16 -0.162088)
(5.95114 -2.14693e-16 -0.156342)
(6.10767 -2.02676e-16 -0.151064)
(6.24488 -1.73431e-16 -0.146242)
(6.36542 -1.5197e-16 -0.141852)
(6.47152 -1.33085e-16 -0.137863)
(6.56511 -1.83776e-16 -0.134245)
(6.64785 -2.10107e-16 -0.130965)
(6.72115 -2.34814e-16 -0.127992)
(6.78622 -2.58378e-16 -0.125298)
(6.84412 -2.77563e-16 -0.122854)
(6.89573 -2.33445e-16 -0.12064)
(6.94182 -2.71149e-16 -0.118635)
(6.98306 -2.94292e-16 -0.116822)
(7.02001 -2.6524e-16 -0.115183)
(7.05318 -2.44942e-16 -0.113706)
(7.08299 -2.51166e-16 -0.112387)
(7.10985 -2.57483e-16 -0.111164)
(0.596309 4.02789e-17 -0.307528)
(1.22105 -1.63306e-16 -0.285571)
(1.8943 -2.13951e-16 -0.279895)
(2.50847 -2.24996e-16 -0.278523)
(3.07644 -2.59779e-16 -0.275492)
(3.58913 -2.60642e-16 -0.270543)
(4.0477 -2.54916e-16 -0.263792)
(4.45424 -2.66064e-16 -0.255865)
(4.8124 -2.22604e-16 -0.247358)
(5.12679 -2.98992e-16 -0.238719)
(5.40226 -2.82012e-16 -0.230262)
(5.64349 -2.36389e-16 -0.222188)
(5.85484 -2.46817e-16 -0.214604)
(6.04022 -2.89364e-16 -0.207564)
(6.20307 -2.44045e-16 -0.20108)
(6.34638 -2.86951e-16 -0.195141)
(6.47276 -2.74113e-16 -0.18972)
(6.58442 -2.93998e-16 -0.184784)
(6.68328 -2.62672e-16 -0.180295)
(6.77098 -2.4924e-16 -0.176217)
(6.84894 -2.39536e-16 -0.172513)
(6.91838 -2.24323e-16 -0.169151)
(6.98034 -2.61753e-16 -0.1661)
(7.03572 -2.52388e-16 -0.163331)
(7.0853 -2.34903e-16 -0.160817)
(7.12977 -2.29655e-16 -0.158536)
(7.1697 -2.30893e-16 -0.15647)
(7.20563 -2.11377e-16 -0.154601)
(7.23797 -1.74648e-16 -0.152921)
(7.26715 -1.71255e-16 -0.151371)
(0.588459 2.36061e-17 -0.377716)
(1.21631 -1.51543e-16 -0.353083)
(1.89255 -2.4226e-16 -0.347116)
(2.50936 -2.74149e-16 -0.345416)
(3.07951 -2.89386e-16 -0.341889)
(3.59407 -3.13659e-16 -0.336082)
(4.0544 -3.25402e-16 -0.328153)
(4.46267 -3.07771e-16 -0.31883)
(4.82261 -3.52962e-16 -0.308808)
(5.13886 -3.44819e-16 -0.298615)
(5.41628 -2.7474e-16 -0.288624)
(5.65954 -3.24541e-16 -0.279072)
(5.87299 -3.02646e-16 -0.270092)
(6.06052 -2.81496e-16 -0.261747)
(6.22553 -3.08202e-16 -0.254054)
(6.37101 -2.68377e-16 -0.247)
(6.49953 -2.83753e-16 -0.240555)
(6.6133 -2.10586e-16 -0.234679)
(6.71422 -2.74165e-16 -0.229332)
(6.80392 -2.8699e-16 -0.224468)
(6.8838 -2.80705e-16 -0.220045)
(6.95506 -2.99528e-16 -0.216026)
(7.01876 -2.78406e-16 -0.212375)
(7.07579 -2.96762e-16 -0.209057)
(7.12693 -2.36102e-16 -0.206041)
(7.17285 -2.01248e-16 -0.203301)
(7.21415 -1.85332e-16 -0.200813)
(7.25134 -1.9074e-16 -0.198556)
(7.28486 -2.01158e-16 -0.196517)
(7.31513 -1.81131e-16 -0.194644)
(0.579603 8.94599e-18 -0.452327)
(1.20819 -1.86036e-16 -0.423941)
(1.88429 -2.65656e-16 -0.417605)
(2.50097 -3.38073e-16 -0.415604)
(3.07077 -3.42731e-16 -0.411537)
(3.58477 -3.67301e-16 -0.404842)
(4.04441 -3.18793e-16 -0.395694)
(4.45193 -3.44723e-16 -0.384924)
(4.81114 -3.13803e-16 -0.373328)
(5.12672 -2.92373e-16 -0.361519)
(5.40355 -3.27895e-16 -0.34993)
(5.64633 -2.85599e-16 -0.338839)
(5.8594 -2.85955e-16 -0.328401)
(6.04665 -2.90191e-16 -0.318693)
(6.2115 -2.77927e-16 -0.309736)
(6.35691 -2.60161e-16 -0.301516)
(6.48545 -1.92274e-16 -0.294)
(6.59931 -2.75757e-16 -0.287143)
(6.70038 -2.34031e-16 -0.280897)
(6.79028 -2.28659e-16 -0.275211)
(6.8704 -2.12491e-16 -0.270039)
(6.94194 -1.73923e-16 -0.265335)
(7.00594 -1.93879e-16 -0.261054)
(7.06328 -1.70533e-16 -0.257156)
(7.11473 -2.2337e-16 -0.253611)
(7.16097 -2.38891e-16 -0.25039)
(7.20259 -2.31616e-16 -0.247464)
(7.24009 -2.12112e-16 -0.244806)
(7.27392 -1.88176e-16 -0.242396)
(7.30448 -2.40077e-16 -0.240189)
(0.570497 -2.73544e-17 -0.52932)
(1.19862 -1.9503e-16 -0.497736)
(1.87335 -3.02921e-16 -0.49122)
(2.48871 -3.53327e-16 -0.488946)
(3.05705 -3.82854e-16 -0.48434)
(3.56936 -3.90468e-16 -0.476704)
(4.02714 -3.89112e-16 -0.466265)
(4.43271 -3.63751e-16 -0.453968)
(4.78993 -3.60987e-16 -0.440717)
(5.10355 -3.62557e-16 -0.427213)
(5.37849 -3.26568e-16 -0.413953)
(5.61948 -3.35247e-16 -0.401257)
(5.83088 -3.34265e-16 -0.389305)
(6.01659 -3.62074e-16 -0.378183)
(6.18004 -3.35161e-16 -0.367918)
(6.32418 -3.77259e-16 -0.358494)
(6.45158 -3.61098e-16 -0.349875)
(6.56442 -2.99655e-16 -0.342008)
(6.66459 -3.01196e-16 -0.334841)
(6.75369 -2.87456e-16 -0.328314)
(6.83311 -2.94962e-16 -0.322373)
(6.90403 -2.82198e-16 -0.316968)
(6.96748 -2.21006e-16 -0.312052)
(7.02434 -2.10171e-16 -0.30758)
(7.07537 -2.0096e-16 -0.30351)
(7.12125 -1.98076e-16 -0.299806)
(7.16255 -1.86642e-16 -0.296436)
(7.19978 -2.12507e-16 -0.29337)
(7.23336 -2.60258e-16 -0.290582)
(7.26372 -2.39378e-16 -0.288037)
(0.56163 -7.26511e-17 -0.60885)
(1.18859 -1.36423e-16 -0.574708)
(1.8614 -3.6082e-16 -0.568084)
(2.47491 -4.12562e-16 -0.565541)
(3.04122 -4.22446e-16 -0.560355)
(3.55125 -3.70777e-16 -0.55171)
(4.00655 -4.42654e-16 -0.539889)
(4.40951 -4.02066e-16 -0.525962)
(4.76406 -3.92079e-16 -0.510949)
(5.07504 -3.83156e-16 -0.495644)
(5.34739 -3.52661e-16 -0.480613)
(5.58591 -2.9885e-16 -0.466217)
(5.79497 -2.96609e-16 -0.452661)
(5.97849 -2.83588e-16 -0.440047)
(6.13989 -2.87251e-16 -0.428401)
(6.28215 -2.93134e-16 -0.417709)
(6.40781 -2.66216e-16 -0.407928)
(6.51907 -2.00814e-16 -0.399001)
(6.61779 -2.36272e-16 -0.390864)
(6.70558 -2.30245e-16 -0.383454)
(6.7838 -1.98516e-16 -0.376709)
(6.85364 -2.12231e-16 -0.37057)
(6.91611 -2.24167e-16 -0.364983)
(6.97209 -2.26513e-16 -0.359896)
(7.02232 -1.87028e-16 -0.355264)
(7.06748 -1.74575e-16 -0.351048)
(7.10813 -1.96968e-16 -0.347211)
(7.14477 -2.1328e-16 -0.343717)
(7.17782 -2.17204e-16 -0.340537)
(7.2077 -2.26502e-16 -0.337639)
(0.553242 -1.10265e-16 -0.691373)
(1.17852 -2.24333e-16 -0.654976)
(1.84904 -4.30217e-16 -0.648291)
(2.46036 -4.39792e-16 -0.645484)
(3.02426 -4.30602e-16 -0.639676)
(3.53161 -4.70098e-16 -0.629941)
(3.984 -4.69919e-16 -0.616637)
(4.3839 -4.33115e-16 -0.600965)
(4.73535 -3.87327e-16 -0.584072)
(5.04323 -3.76738e-16 -0.566851)
(5.31257 -3.59515e-16 -0.549938)
(5.5482 -3.93146e-16 -0.53374)
(5.75452 -3.85127e-16 -0.518488)
(5.93546 -3.33777e-16 -0.504296)
(6.09447 -2.98037e-16 -0.491194)
(6.2345 -2.73171e-16 -0.479166)
(6.35812 -2.56004e-16 -0.468163)
(6.46749 -2.61407e-16 -0.458121)
(6.56449 -2.87972e-16 -0.448969)
(6.6507 -2.46708e-16 -0.440634)
(6.72749 -2.46946e-16 -0.433047)
(6.79602 -2.33005e-16 -0.426141)
(6.8573 -2.60082e-16 -0.419855)
(6.91219 -2.8214e-16 -0.414133)
(6.96145 -2.64952e-16 -0.408923)
(7.00571 -2.56788e-16 -0.404179)
(7.04554 -2.61177e-16 -0.39986)
(7.08144 -1.97829e-16 -0.395925)
(7.11383 -1.74921e-16 -0.392342)
(7.14311 -1.77883e-16 -0.389081)
(0.545397 -1.55368e-16 -0.776953)
(1.16853 -3.8747e-16 -0.73864)
(1.83646 -4.91868e-16 -0.731956)
(2.44526 -4.62199e-16 -0.728885)
(3.00642 -5.15269e-16 -0.722401)
(3.51072 -4.73104e-16 -0.711485)
(3.95982 -4.3355e-16 -0.696581)
(4.35629 -4.2457e-16 -0.679039)
(4.70425 -4.01754e-16 -0.660135)
(5.00869 -3.96984e-16 -0.640871)
(5.27468 -3.85778e-16 -0.621956)
(5.50711 -3.55934e-16 -0.603845)
(5.7104 -3.33768e-16 -0.586796)
(5.88852 -2.96521e-16 -0.570934)
(6.0449 -2.8543e-16 -0.556294)
(6.1825 -2.33099e-16 -0.542857)
(6.30388 -2.55774e-16 -0.530566)
(6.41121 -2.7761e-16 -0.519351)
(6.50633 -2.2064e-16 -0.50913)
(6.59083 -2.32919e-16 -0.499823)
(6.66606 -2.46991e-16 -0.491352)
(6.73317 -2.44107e-16 -0.483642)
(6.79315 -2.29086e-16 -0.476624)
(6.84687 -2.21434e-16 -0.470235)
(6.89506 -2.17192e-16 -0.464418)
(6.93835 -2.28298e-16 -0.459121)
(6.9773 -2.15852e-16 -0.454296)
(7.0124 -2.63279e-16 -0.449899)
(7.04406 -2.70072e-16 -0.445895)
(7.07267 -2.5473e-16 -0.442254)
(0.53805 -1.94377e-16 -0.865717)
(1.15861 -4.62667e-16 -0.82582)
(1.82362 -5.05543e-16 -0.819197)
(2.42959 -5.10926e-16 -0.815856)
(2.98766 -5.37557e-16 -0.808634)
(3.48854 -5.03898e-16 -0.796432)
(3.93399 -4.45144e-16 -0.779801)
(4.32666 -4.19094e-16 -0.760247)
(4.67079 -4.35746e-16 -0.739193)
(4.97146 -3.9624e-16 -0.71775)
(5.23382 -4.03804e-16 -0.696705)
(5.46279 -3.98746e-16 -0.676564)
(5.66283 -3.21085e-16 -0.65761)
(5.83792 -3.16929e-16 -0.639984)
(5.9915 -2.78772e-16 -0.623721)
(6.12653 -2.97492e-16 -0.608798)
(6.24555 -2.01969e-16 -0.595153)
(6.35072 -1.5331e-16 -0.582704)
(6.44388 -2.23141e-16 -0.571363)
(6.52659 -2.53706e-16 -0.561037)
(6.60019 -2.46818e-16 -0.55164)
(6.66583 -2.42135e-16 -0.543088)
(6.72447 -2.23676e-16 -0.535306)
(6.77698 -2.25676e-16 -0.528221)
(6.82406 -2.35269e-16 -0.52177)
(6.86634 -1.82378e-16 -0.515895)
(6.90439 -1.88212e-16 -0.510545)
(6.93866 -1.51029e-16 -0.505669)
(6.96957 -1.70695e-16 -0.501229)
(6.9975 -1.50444e-16 -0.497193)
(0.531118 -2.21197e-16 -0.957818)
(1.14873 -4.13164e-16 -0.916639)
(1.81048 -5.0221e-16 -0.910135)
(2.41327 -5.5671e-16 -0.90651)
(2.9679 -5.28782e-16 -0.898473)
(3.46499 -5.21147e-16 -0.884868)
(3.9064 -4.76121e-16 -0.866368)
(4.29491 -4.73025e-16 -0.844651)
(4.63487 -4.09757e-16 -0.821294)
(4.93147 -3.94087e-16 -0.797526)
(5.18992 -3.57216e-16 -0.774218)
(5.41519 -3.42713e-16 -0.751923)
(5.61179 -3.23146e-16 -0.730956)
(5.78369 -3.09903e-16 -0.711466)
(5.93433 -2.72185e-16 -0.693492)
(6.06668 -3.15999e-16 -0.677006)
(6.18326 -2.98327e-16 -0.661938)
(6.2862 -2.894e-16 -0.648196)
(6.37734 -2.90044e-16 -0.63568)
(6.45823 -2.15484e-16 -0.624288)
(6.53017 -1.63366e-16 -0.613923)
(6.59431 -1.80867e-16 -0.604493)
(6.6516 -1.95204e-16 -0.595911)
(6.70287 -2.00887e-16 -0.5881)
(6.74883 -1.56596e-16 -0.580989)
(6.79011 -1.65805e-16 -0.574514)
(6.82724 -1.49705e-16 -0.568616)
(6.86068 -1.48323e-16 -0.563241)
(6.89084 -1.17127e-16 -0.558348)
(6.91809 -1.23161e-16 -0.553902)
(0.524512 -2.43924e-16 -1.0534)
(1.13881 -4.21472e-16 -1.01122)
(1.79695 -5.02989e-16 -1.00489)
(2.39623 -5.35308e-16 -1.00096)
(2.94703 -5.20295e-16 -0.992017)
(3.43994 -5.17219e-16 -0.976876)
(3.87694 -4.5855e-16 -0.956349)
(4.26091 -4.58462e-16 -0.932306)
(4.59637 -4.1214e-16 -0.906482)
(4.8886 -3.84919e-16 -0.880236)
(5.14289 -3.36537e-16 -0.854522)
(5.36425 -3.1628e-16 -0.829946)
(5.55723 -3.20072e-16 -0.80685)
(5.7258 -2.53052e-16 -0.785395)
(5.8734 -2.65361e-16 -0.76562)
(6.00299 -2.45305e-16 -0.747492)
(6.11706 -2.38925e-16 -0.73093)
(6.21774 -2.29174e-16 -0.715833)
(6.30683 -1.93441e-16 -0.702087)
(6.38586 -1.97052e-16 -0.689582)
(6.45614 -2.4626e-16 -0.678207)
(6.51877 -2.02867e-16 -0.667861)
(6.5747 -1.6518e-16 -0.658448)
(6.62474 -1.66514e-16 -0.649883)
(6.66959 -1.83092e-16 -0.642086)
(6.70986 -1.72832e-16 -0.634986)
(6.74608 -1.8534e-16 -0.628521)
(6.7787 -1.98623e-16 -0.622629)
(6.80811 -2.30605e-16 -0.617266)
(6.83468 -2.28816e-16 -0.612395)
(0.518153 -2.61501e-16 -1.1526)
(1.12878 -4.7671e-16 -1.10968)
(1.78297 -5.87892e-16 -1.10357)
(2.37836 -5.50555e-16 -1.0993)
(2.92495 -5.25253e-16 -1.08936)
(3.41328 -5.34179e-16 -1.07253)
(3.84547 -4.92239e-16 -1.04981)
(4.22455 -4.53076e-16 -1.02326)
(4.55517 -4.10605e-16 -0.994795)
(4.84274 -3.84317e-16 -0.965908)
(5.09263 -3.51541e-16 -0.937639)
(5.30989 -2.92843e-16 -0.91065)
(5.4991 -2.52565e-16 -0.88531)
(5.66422 -2.62339e-16 -0.861791)
(5.80869 -2.85706e-16 -0.840131)
(5.93545 -2.53994e-16 -0.820286)
(6.04697 -2.64319e-16 -0.802167)
(6.14535 -2.48327e-16 -0.785658)
(6.23237 -1.97292e-16 -0.770635)
(6.30954 -1.86187e-16 -0.756972)
(6.37813 -1.4447e-16 -0.744549)
(6.43925 -1.32627e-16 -0.733252)
(6.49381 -1.31932e-16 -0.722977)
(6.54262 -1.71099e-16 -0.713628)
(6.58637 -2.2332e-16 -0.705119)
(6.62564 -2.62023e-16 -0.697372)
(6.66095 -1.93306e-16 -0.690317)
(6.69275 -1.06778e-16 -0.683889)
(6.72142 -1.19445e-16 -0.678038)
(6.74732 -1.16373e-16 -0.672726)
(0.511977 -2.89365e-16 -1.25555)
(1.1186 -4.98108e-16 -1.21215)
(1.76848 -6.51695e-16 -1.2063)
(2.3596 -6.21572e-16 -1.20165)
(2.90156 -5.51551e-16 -1.19058)
(3.3849 -5.38115e-16 -1.1719)
(3.81187 -5.34797e-16 -1.1468)
(4.18569 -4.73926e-16 -1.11755)
(4.51116 -3.99744e-16 -1.08626)
(4.79379 -3.87037e-16 -1.05457)
(5.03905 -3.24926e-16 -1.0236)
(5.25203 -3.55264e-16 -0.994064)
(5.43731 -2.8853e-16 -0.966368)
(5.59887 -3.10667e-16 -0.940688)
(5.74013 -2.84616e-16 -0.917057)
(5.86398 -2.64197e-16 -0.895423)
(5.97289 -2.04408e-16 -0.875682)
(6.06892 -1.8703e-16 -0.857704)
(6.15384 -1.94573e-16 -0.841351)
(6.22911 -1.70581e-16 -0.826484)
(6.29601 -1.41693e-16 -0.812969)
(6.3556 -1.70176e-16 -0.800683)
(6.40878 -2.11521e-16 -0.789511)
(6.45635 -2.21567e-16 -0.779348)
(6.49898 -2.56189e-16 -0.7701)
(6.53725 -2.3172e-16 -0.761681)
(6.57165 -2.19565e-16 -0.754015)
(6.60263 -2.00682e-16 -0.747032)
(6.63056 -1.82678e-16 -0.740678)
(6.6558 -1.93916e-16 -0.73491)
(0.505927 -3.10639e-16 -1.3624)
(1.10822 -5.27755e-16 -1.31874)
(1.7534 -6.48762e-16 -1.31319)
(2.33985 -7.01909e-16 -1.30809)
(2.87677 -5.89171e-16 -1.29576)
(3.35469 -5.4544e-16 -1.27506)
(3.77605 -5.24526e-16 -1.24736)
(4.14423 -4.6417e-16 -1.21521)
(4.46422 -4.32349e-16 -1.18091)
(4.74164 -3.31127e-16 -1.14624)
(4.98204 -3.34345e-16 -1.11241)
(5.19056 -3.28486e-16 -1.0802)
(5.37177 -2.97041e-16 -1.05003)
(5.52964 -2.39574e-16 -1.02208)
(5.66757 -2.36923e-16 -0.99638)
(5.78844 -2.2829e-16 -0.972872)
(5.89467 -2.10956e-16 -0.951435)
(5.98831 -1.98151e-16 -0.931924)
(6.07108 -1.92039e-16 -0.914184)
(6.14443 -1.85331e-16 -0.898063)
(6.2096 -2.012e-16 -0.883415)
(6.26764 -1.49019e-16 -0.870104)
(6.31943 -1.52571e-16 -0.858003)
(6.36575 -1.64037e-16 -0.846998)
(6.40726 -1.51665e-16 -0.836987)
(6.44451 -1.77137e-16 -0.827875)
(6.47801 -1.4735e-16 -0.81958)
(6.50817 -1.39445e-16 -0.812025)
(6.53536 -1.69822e-16 -0.805153)
(6.55992 -1.65147e-16 -0.798916)
(0.499957 -3.49932e-16 -1.47327)
(1.09758 -6.0186e-16 -1.42956)
(1.73768 -6.99486e-16 -1.42434)
(2.31904 -7.23545e-16 -1.41872)
(2.85047 -6.01893e-16 -1.40498)
(3.32253 -5.24209e-16 -1.38204)
(3.73787 -4.94438e-16 -1.35154)
(4.10005 -4.51104e-16 -1.31627)
(4.41424 -4.25839e-16 -1.27876)
(4.68618 -3.50814e-16 -1.24091)
(4.92151 -3.12511e-16 -1.20406)
(5.12539 -3.13934e-16 -1.16903)
(5.30239 -2.89493e-16 -1.13626)
(5.45647 -2.6755e-16 -1.10593)
(5.591 -2.44294e-16 -1.07808)
(5.70883 -2.24114e-16 -1.05262)
(5.81234 -1.87319e-16 -1.02942)
(5.90354 -1.98765e-16 -1.00831)
(5.98414 -1.65763e-16 -0.989139)
(6.05555 -1.96152e-16 -0.971723)
(6.11898 -2.23036e-16 -0.955904)
(6.17547 -2.46697e-16 -0.941534)
(6.22587 -2.3993e-16 -0.928475)
(6.27094 -2.30889e-16 -0.916603)
(6.31133 -2.32052e-16 -0.905805)
(6.34757 -1.69111e-16 -0.89598)
(6.38016 -1.7638e-16 -0.887038)
(6.4095 -1.58819e-16 -0.878895)
(6.43595 -1.46168e-16 -0.871489)
(6.45985 -1.43783e-16 -0.86477)
(0.494024 -3.90516e-16 -1.58828)
(1.08663 -6.86415e-16 -1.54473)
(1.72125 -7.43764e-16 -1.53985)
(2.29709 -6.91384e-16 -1.53362)
(2.82258 -5.85284e-16 -1.5183)
(3.28835 -5.44545e-16 -1.4929)
(3.69725 -5.08106e-16 -1.45935)
(4.05307 -4.49505e-16 -1.42074)
(4.36115 -3.85812e-16 -1.37979)
(4.62738 -3.33463e-16 -1.33859)
(4.85743 -3.09663e-16 -1.29855)
(5.05651 -3.03312e-16 -1.26055)
(5.2292 -3.00816e-16 -1.22506)
(5.37942 -2.57585e-16 -1.19226)
(5.51051 -2.38856e-16 -1.16216)
(5.62526 -2.40392e-16 -1.13468)
(5.72603 -2.34034e-16 -1.10965)
(5.8148 -2.21852e-16 -1.0869)
(5.89322 -2.37909e-16 -1.06624)
(5.9627 -2.75328e-16 -1.04749)
(6.0244 -2.59917e-16 -1.03046)
(6.07933 -2.01782e-16 -1.015)
(6.12835 -1.86875e-16 -1.00095)
(6.17219 -2.03301e-16 -0.98818)
(6.21146 -1.67087e-16 -0.976571)
(6.2467 -1.4679e-16 -0.966011)
(6.27839 -1.88605e-16 -0.956402)
(6.30692 -1.74715e-16 -0.947653)
(6.33264 -1.0252e-16 -0.939698)
(6.35588 -1.68583e-16 -0.932482)
(0.488089 -4.5476e-16 -1.70756)
(1.07534 -6.60521e-16 -1.66436)
(1.70406 -6.93467e-16 -1.65981)
(2.27393 -6.68588e-16 -1.65287)
(2.79301 -5.88292e-16 -1.63576)
(3.25204 -5.53841e-16 -1.60766)
(3.65411 -5.30163e-16 -1.57081)
(4.00322 -4.25573e-16 -1.52861)
(4.30492 -3.41341e-16 -1.48401)
(4.5652 -3.12314e-16 -1.43926)
(4.78982 -2.8227e-16 -1.39587)
(4.984 -2.82016e-16 -1.35477)
(5.1523 -2.26796e-16 -1.31644)
(5.2986 -2.23569e-16 -1.28106)
(5.42621 -1.70731e-16 -1.24864)
(5.53788 -2.12432e-16 -1.21905)
(5.63591 -2.75797e-16 -1.19213)
(5.72225 -2.60744e-16 -1.16768)
(5.79851 -2.51988e-16 -1.14548)
(5.86605 -2.22018e-16 -1.12534)
(5.92604 -1.57751e-16 -1.10707)
(5.97945 -1.32546e-16 -1.09048)
(6.0271 -1.37151e-16 -1.07541)
(6.06971 -1.28148e-16 -1.06172)
(6.10788 -5.19282e-17 -1.04928)
(6.14214 -1.22337e-16 -1.03796)
(6.17294 -1.42589e-16 -1.02767)
(6.20067 -1.15496e-16 -1.0183)
(6.22568 -1.53301e-16 -1.00978)
(6.24827 -1.2912e-16 -1.00205)
(0.482117 -5.04114e-16 -1.83123)
(1.06365 -6.78177e-16 -1.78854)
(1.68605 -6.95412e-16 -1.78431)
(2.24948 -6.78031e-16 -1.77653)
(2.76169 -6.51154e-16 -1.75741)
(3.21354 -5.91839e-16 -1.72635)
(3.60838 -5.24529e-16 -1.68593)
(3.95047 -3.93793e-16 -1.63988)
(4.24552 -3.34324e-16 -1.5914)
(4.49967 -3.07588e-16 -1.54291)
(4.71872 -2.90146e-16 -1.496)
(4.9079 -2.81533e-16 -1.45166)
(5.07174 -2.05711e-16 -1.41037)
(5.2141 -1.8266e-16 -1.37232)
(5.33822 -2.02427e-16 -1.33748)
(5.4468 -2.24903e-16 -1.30572)
(5.5421 -1.68078e-16 -1.27685)
(5.62602 -1.60282e-16 -1.25064)
(5.70014 -1.69825e-16 -1.22686)
(5.76579 -1.26434e-16 -1.2053)
(5.82408 -1.6783e-16 -1.18573)
(5.87598 -1.34571e-16 -1.16799)
(5.92229 -1.53424e-16 -1.15187)
(5.96369 -9.55725e-17 -1.13724)
(6.00079 -1.35969e-16 -1.12394)
(6.03408 -1.0476e-16 -1.11185)
(6.06402 -7.93495e-17 -1.10085)
(6.09097 -5.67897e-17 -1.09084)
(6.11527 -7.60542e-17 -1.08174)
(6.13722 -1.23724e-16 -1.07349)
(0.476073 -5.60943e-16 -1.9594)
(1.05153 -7.86071e-16 -1.91736)
(1.66715 -7.72617e-16 -1.91343)
(2.22368 -6.87865e-16 -1.90464)
(2.72853 -6.9956e-16 -1.88328)
(3.17277 -6.27332e-16 -1.84897)
(3.56002 -5.21067e-16 -1.8047)
(3.89477 -3.87794e-16 -1.75454)
(4.18294 -3.48024e-16 -1.70195)
(4.43079 -3.03673e-16 -1.64951)
(4.64415 -2.51266e-16 -1.59893)
(4.82826 -2.22958e-16 -1.5512)
(4.98762 -2.04993e-16 -1.50684)
(5.12602 -2.13106e-16 -1.46602)
(5.24664 -2.07347e-16 -1.42868)
(5.35215 -1.68584e-16 -1.39468)
(5.44475 -1.6819e-16 -1.36379)
(5.52628 -2.00334e-16 -1.33577)
(5.59828 -1.71652e-16 -1.31037)
(5.66205 -2.16631e-16 -1.28734)
(5.71869 -1.27083e-16 -1.26646)
(5.76911 -1.15501e-16 -1.24752)
(5.8141 -9.84375e-17 -1.23033)
(5.85433 -1.09633e-16 -1.21473)
(5.89037 -9.62555e-17 -1.20055)
(5.92272 -5.92193e-17 -1.18766)
(5.9518 -1.24771e-16 -1.17594)
(5.97799 -1.85589e-16 -1.16527)
(6.0016 -1.69192e-16 -1.15558)
(6.02294 -1.52318e-16 -1.14679)
(0.469924 -6.03633e-16 -2.09215)
(1.03893 -8.52042e-16 -2.05091)
(1.64732 -8.30545e-16 -2.04723)
(2.19645 -7.10565e-16 -2.03726)
(2.69347 -6.99226e-16 -2.01338)
(3.12967 -6.20544e-16 -1.97553)
(3.50896 -5.13892e-16 -1.9271)
(3.8361 -3.87959e-16 -1.87255)
(4.11718 -3.11014e-16 -1.81561)
(4.35858 -2.93903e-16 -1.75904)
(4.56617 -2.34364e-16 -1.70461)
(4.74517 -2.15511e-16 -1.65337)
(4.90001 -2.36702e-16 -1.60583)
(5.03445 -2.31285e-16 -1.56214)
(5.1516 -1.9967e-16 -1.52223)
(5.25407 -1.83234e-16 -1.48592)
(5.34399 -2.51907e-16 -1.45296)
(5.42316 -2.13095e-16 -1.42308)
(5.49309 -2.38828e-16 -1.39601)
(5.55503 -1.44134e-16 -1.37148)
(5.61004 -8.63018e-17 -1.34924)
(5.65901 -1.31207e-16 -1.32908)
(5.70271 -1.04833e-16 -1.31079)
(5.74179 -1.51377e-16 -1.29419)
(5.7768 -1.76783e-16 -1.27911)
(5.80823 -1.9285e-16 -1.26541)
(5.83648 -1.41281e-16 -1.25295)
(5.86192 -8.47475e-17 -1.24161)
(5.88487 -1.53897e-16 -1.23131)
(5.90559 -1.32922e-16 -1.22197)
(0.46364 -6.3151e-16 -2.2296)
(1.02581 -9.04232e-16 -2.18926)
(1.6265 -8.24593e-16 -2.18575)
(2.16772 -7.72476e-16 -2.1744)
(2.65644 -6.74262e-16 -2.14772)
(3.08418 -5.82104e-16 -2.10599)
(3.45518 -4.88967e-16 -2.0531)
(3.77444 -4.08444e-16 -1.99388)
(4.04826 -2.96415e-16 -1.93236)
(4.28309 -2.37936e-16 -1.87144)
(4.48485 -2.63725e-16 -1.81301)
(4.6587 -2.35676e-16 -1.75813)
(4.80903 -2.88902e-16 -1.70731)
(4.93953 -2.05186e-16 -1.66066)
(5.05325 -1.55277e-16 -1.61811)
(5.1527 -2.01949e-16 -1.57943)
(5.23999 -1.65108e-16 -1.54435)
(5.31685 -1.23609e-16 -1.51256)
(5.38474 -1.49224e-16 -1.48377)
(5.44489 -1.45845e-16 -1.4577)
(5.4983 -1.50435e-16 -1.43408)
(5.54587 -1.58278e-16 -1.41267)
(5.58831 -2.06295e-16 -1.39326)
(5.62626 -1.71435e-16 -1.37563)
(5.66027 -1.52302e-16 -1.35963)
(5.6908 -1.16682e-16 -1.34509)
(5.71824 -1.0928e-16 -1.33187)
(5.74295 -5.84225e-17 -1.31984)
(5.76524 -4.07252e-17 -1.30892)
(5.78537 -1.05895e-16 -1.29901)
(0.457194 -6.73741e-16 -2.3718)
(1.01212 -8.76721e-16 -2.33246)
(1.60462 -8.08463e-16 -2.32904)
(2.13743 -7.95754e-16 -2.31607)
(2.61738 -7.17635e-16 -2.28628)
(3.03626 -5.87382e-16 -2.24034)
(3.39866 -4.48926e-16 -2.18265)
(3.70981 -3.99466e-16 -2.11848)
(3.97621 -3.01337e-16 -2.05213)
(4.20439 -2.4745e-16 -1.98669)
(4.40027 -2.46488e-16 -1.9241)
(4.56897 -2.62811e-16 -1.86546)
(4.71482 -2.84023e-16 -1.81125)
(4.84141 -2.19975e-16 -1.76158)
(4.95173 -1.81691e-16 -1.71631)
(5.04823 -1.99916e-16 -1.6752)
(5.13293 -1.45652e-16 -1.63795)
(5.20753 -7.37627e-17 -1.60421)
(5.27344 -8.37666e-17 -1.57368)
(5.33183 -1.20354e-16 -1.54603)
(5.3837 -1.45308e-16 -1.52099)
(5.42988 -1.25387e-16 -1.4983)
(5.47109 -1.37393e-16 -1.47773)
(5.50795 -1.53525e-16 -1.45906)
(5.54098 -9.30415e-17 -1.44211)
(5.57062 -1.22855e-16 -1.42671)
(5.59728 -1.36952e-16 -1.41272)
(5.62128 -1.53149e-16 -1.39999)
(5.64292 -1.45761e-16 -1.38842)
(5.66246 -1.42919e-16 -1.37794)
(0.450558 -7.38708e-16 -2.51883)
(0.997819 -9.32096e-16 -2.48057)
(1.58164 -8.7002e-16 -2.47711)
(2.10553 -7.71714e-16 -2.46227)
(2.57624 -7.44323e-16 -2.42902)
(2.98589 -5.70163e-16 -2.37851)
(3.33938 -4.47753e-16 -2.31569)
(3.64223 -3.76597e-16 -2.24628)
(3.90109 -2.78899e-16 -2.17488)
(4.12256 -2.79536e-16 -2.10472)
(4.31255 -2.32318e-16 -2.03783)
(4.47613 -2.73279e-16 -1.9753)
(4.61753 -2.82641e-16 -1.9176)
(4.74029 -2.826e-16 -1.86481)
(4.84727 -2.19816e-16 -1.81676)
(4.94088 -1.78047e-16 -1.77317)
(5.02307 -1.0759e-16 -1.73369)
(5.09546 -9.98135e-17 -1.69797)
(5.15943 -1.19262e-16 -1.66564)
(5.21611 -1.75825e-16 -1.63639)
(5.26647 -1.69099e-16 -1.6099)
(5.3113 -1.57328e-16 -1.58591)
(5.35132 -1.47002e-16 -1.56416)
(5.38711 -9.47732e-17 -1.54442)
(5.41918 -8.83747e-17 -1.52651)
(5.44796 -5.19378e-17 -1.51023)
(5.47384 -1.12065e-16 -1.49544)
(5.49714 -1.68185e-16 -1.48199)
(5.51815 -1.44372e-16 -1.46976)
(5.53713 -1.23933e-16 -1.45869)
(0.443707 -7.84891e-16 -2.67074)
(0.982865 -1.03049e-15 -2.6336)
(1.55749 -8.97552e-16 -2.62997)
(2.07195 -8.06244e-16 -2.61297)
(2.533 -6.98761e-16 -2.5759)
(2.93305 -5.34005e-16 -2.52044)
(3.27738 -4.27973e-16 -2.45216)
(3.57175 -3.29197e-16 -2.37722)
(3.82298 -2.93087e-16 -2.30053)
(4.03772 -2.81905e-16 -2.22547)
(4.22185 -2.49281e-16 -2.15413)
(4.38037 -2.61045e-16 -2.08761)
(4.51743 -2.29378e-16 -2.02635)
(4.63644 -2.53976e-16 -1.97037)
(4.74019 -2.09361e-16 -1.91949)
(4.831 -1.36728e-16 -1.87336)
(4.91074 -1.57272e-16 -1.83161)
(4.981 -1.80049e-16 -1.79385)
(5.04309 -1.85781e-16 -1.7597)
(5.09812 -2.17351e-16 -1.7288)
(5.147 -1.79395e-16 -1.70083)
(5.19054 -9.12317e-17 -1.6755)
(5.22939 -5.59221e-17 -1.65254)
(5.26414 -8.73761e-17 -1.63171)
(5.29528 -1.51097e-16 -1.61281)
(5.32323 -1.37488e-16 -1.59563)
(5.34835 -8.49174e-17 -1.58003)
(5.37098 -1.05984e-16 -1.56583)
(5.39137 -1.3752e-16 -1.55294)
(5.40979 -8.55059e-17 -1.54125)
(0.436613 -8.12453e-16 -2.82754)
(0.967217 -9.81855e-16 -2.79156)
(1.53213 -8.8053e-16 -2.78758)
(2.03668 -8.7114e-16 -2.76811)
(2.48761 -6.13753e-16 -2.72685)
(2.87774 -5.07014e-16 -2.66605)
(3.21267 -4.38181e-16 -2.59196)
(3.49843 -2.78513e-16 -2.51121)
(3.74198 -2.85633e-16 -2.42901)
(3.95002 -2.50679e-16 -2.34889)
(4.12834 -2.64838e-16 -2.27298)
(4.28188 -2.36148e-16 -2.20238)
(4.41469 -2.03264e-16 -2.13748)
(4.53006 -2.43329e-16 -2.07828)
(4.63068 -1.87147e-16 -2.02451)
(4.71878 -1.44729e-16 -1.9758)
(4.79617 -1.28669e-16 -1.93174)
(4.86437 -1.27102e-16 -1.89191)
(4.92465 -2.05996e-16 -1.85589)
(4.97808 -1.64894e-16 -1.82332)
(5.02556 -1.06982e-16 -1.79384)
(5.06784 -9.29035e-17 -1.76714)
(5.10558 -1.5575e-16 -1.74294)
(5.13933 -1.82106e-16 -1.72099)